# vtk DataFile Version 1.0
ECM-CELL DIFFUSION-MECHANICS
ASCII

DATASET UNSTRUCTURED_GRID
POINTS      243 float
1.50000000E+01  3.00000000E+01 0.00000000E+00
-5.00000000E+00  3.00000000E+01 0.00000000E+00
-5.00000000E+00  0.00000000E+00 0.00000000E+00
-2.50000000E+01  0.00000000E+00 0.00000000E+00
-2.69134180E+01  -9.61939810E+00 0.00000000E+00
-2.85355340E+01  -8.53553390E+00 0.00000000E+00
-2.96193980E+01  -6.91341730E+00 0.00000000E+00
-3.00000000E+01  -5.00000000E+00 0.00000000E+00
-2.96193980E+01  -3.08658290E+00 0.00000000E+00
-2.85355340E+01  -1.46446610E+00 0.00000000E+00
-2.69134180E+01  -3.80602330E-01 0.00000000E+00
-2.50000000E+01  -1.00000000E+01 0.00000000E+00
5.00000000E+00  -1.00000000E+01 0.00000000E+00
5.00000000E+00  2.00000000E+01 0.00000000E+00
1.30000000E+01  3.00000000E+01 0.00000000E+00
1.10000000E+01  3.00000000E+01 0.00000000E+00
9.00000000E+00  3.00000000E+01 0.00000000E+00
7.00000000E+00  3.00000000E+01 0.00000000E+00
5.00000000E+00  3.00000000E+01 0.00000000E+00
3.00000000E+00  3.00000000E+01 0.00000000E+00
1.00000000E+00  3.00000000E+01 0.00000000E+00
-1.00000000E+00  3.00000000E+01 0.00000000E+00
-3.00000000E+00  3.00000000E+01 0.00000000E+00
-5.00000000E+00  2.80000000E+01 0.00000000E+00
-5.00000000E+00  2.60000000E+01 0.00000000E+00
-5.00000000E+00  2.40000000E+01 0.00000000E+00
-5.00000000E+00  2.20000000E+01 0.00000000E+00
-5.00000000E+00  2.00000000E+01 0.00000000E+00
-5.00000000E+00  1.80000000E+01 0.00000000E+00
-5.00000000E+00  1.60000000E+01 0.00000000E+00
-5.00000000E+00  1.40000000E+01 0.00000000E+00
-5.00000000E+00  1.20000000E+01 0.00000000E+00
-5.00000000E+00  1.00000000E+01 0.00000000E+00
-5.00000000E+00  8.00000000E+00 0.00000000E+00
-5.00000000E+00  6.00000000E+00 0.00000000E+00
-5.00000000E+00  4.00000000E+00 0.00000000E+00
-5.00000000E+00  2.00000000E+00 0.00000000E+00
-7.00000000E+00  0.00000000E+00 0.00000000E+00
-9.00000000E+00  0.00000000E+00 0.00000000E+00
-1.10000000E+01  0.00000000E+00 0.00000000E+00
-1.30000000E+01  0.00000000E+00 0.00000000E+00
-1.50000000E+01  0.00000000E+00 0.00000000E+00
-1.70000000E+01  0.00000000E+00 0.00000000E+00
-1.90000000E+01  0.00000000E+00 0.00000000E+00
-2.10000000E+01  0.00000000E+00 0.00000000E+00
-2.30000000E+01  0.00000000E+00 0.00000000E+00
3.00000000E+00  -1.00000000E+01 0.00000000E+00
1.00000000E+00  -1.00000000E+01 0.00000000E+00
-1.00000000E+00  -1.00000000E+01 0.00000000E+00
-3.00000000E+00  -1.00000000E+01 0.00000000E+00
-5.00000000E+00  -1.00000000E+01 0.00000000E+00
-7.00000000E+00  -1.00000000E+01 0.00000000E+00
-9.00000000E+00  -1.00000000E+01 0.00000000E+00
-1.10000000E+01  -1.00000000E+01 0.00000000E+00
-1.30000000E+01  -1.00000000E+01 0.00000000E+00
-1.50000000E+01  -1.00000000E+01 0.00000000E+00
-1.70000000E+01  -1.00000000E+01 0.00000000E+00
-1.90000000E+01  -1.00000000E+01 0.00000000E+00
-2.10000000E+01  -1.00000000E+01 0.00000000E+00
-2.30000000E+01  -1.00000000E+01 0.00000000E+00
5.00000000E+00  1.80000000E+01 0.00000000E+00
5.00000000E+00  1.60000000E+01 0.00000000E+00
5.00000000E+00  1.40000000E+01 0.00000000E+00
5.00000000E+00  1.20000000E+01 0.00000000E+00
5.00000000E+00  1.00000000E+01 0.00000000E+00
5.00000000E+00  8.00000000E+00 0.00000000E+00
5.00000000E+00  6.00000000E+00 0.00000000E+00
5.00000000E+00  4.00000000E+00 0.00000000E+00
5.00000000E+00  2.00000000E+00 0.00000000E+00
5.00000000E+00  0.00000000E+00 0.00000000E+00
5.00000000E+00  -2.00000000E+00 0.00000000E+00
5.00000000E+00  -4.00000000E+00 0.00000000E+00
5.00000000E+00  -6.00000000E+00 0.00000000E+00
5.00000000E+00  -8.00000000E+00 0.00000000E+00
6.42857120E+00  2.14285720E+01 0.00000000E+00
7.85714290E+00  2.28571430E+01 0.00000000E+00
9.28571420E+00  2.42857150E+01 0.00000000E+00
1.07142860E+01  2.57142850E+01 0.00000000E+00
1.21428580E+01  2.71428570E+01 0.00000000E+00
1.35714280E+01  2.85714280E+01 0.00000000E+00
-2.63336370E+01  -7.76659110E+00 0.00000000E+00
-2.82226870E+01  -6.43824340E+00 0.00000000E+00
-2.81175650E+01  -4.60588840E+00 0.00000000E+00
-2.61591430E+01  -2.10037330E+00 0.00000000E+00
7.94419190E+00  2.81601090E+01 0.00000000E+00
-3.19118240E+00  2.72962760E+01 0.00000000E+00
-5.94074680E+00  -1.56135580E+00 0.00000000E+00
-3.28010940E+00  6.99999670E+00 0.00000000E+00
-7.98214870E+00  -1.62386550E+00 0.00000000E+00
5.94069960E+00  2.82131770E+01 0.00000000E+00
3.96576310E+00  2.81945500E+01 0.00000000E+00
1.96850980E+00  2.81876320E+01 0.00000000E+00
-9.25469860E-03  2.82110810E+01 0.00000000E+00
-3.19306160E+00  2.51208880E+01 0.00000000E+00
-3.24140290E+00  2.30419270E+01 0.00000000E+00
-3.26721170E+00  2.10157700E+01 0.00000000E+00
-3.29015900E+00  1.90030120E+01 0.00000000E+00
-3.29848810E+00  1.69995920E+01 0.00000000E+00
-3.29507470E+00  1.49994570E+01 0.00000000E+00
-3.28950330E+00  1.29997450E+01 0.00000000E+00
-3.28517390E+00  1.09999160E+01 0.00000000E+00
-3.28540470E+00  8.99997520E+00 0.00000000E+00
-3.28817060E+00  4.99999900E+00 0.00000000E+00
-3.32450200E+00  2.98746320E+00 0.00000000E+00
-3.41863850E+00  9.27179160E-01 0.00000000E+00
-9.99433710E+00  -1.64214650E+00 0.00000000E+00
-1.19982300E+01  -1.64728790E+00 0.00000000E+00
-1.39994690E+01  -1.64868800E+00 0.00000000E+00
-1.59998930E+01  -1.64905520E+00 0.00000000E+00
-1.80005170E+01  -1.65485740E+00 0.00000000E+00
-1.99944210E+01  -1.67004960E+00 0.00000000E+00
-2.19607010E+01  -1.70543470E+00 0.00000000E+00
-2.40205900E+01  -8.05579760E+00 0.00000000E+00
-2.39267060E+01  -1.82353290E+00 0.00000000E+00
2.29777120E+00  -8.18962100E+00 0.00000000E+00
1.23059470E-01  -8.18267440E+00 0.00000000E+00
-1.95802190E+00  -8.22096160E+00 0.00000000E+00
-3.98471190E+00  -8.24636460E+00 0.00000000E+00
-5.99523780E+00  -8.26851940E+00 0.00000000E+00
-7.99814990E+00  -8.27763180E+00 0.00000000E+00
-9.99911310E+00  -8.28131580E+00 0.00000000E+00
-1.19996180E+01  -8.28250790E+00 0.00000000E+00
-1.39998580E+01  -8.28286650E+00 0.00000000E+00
-1.59999980E+01  -8.28308960E+00 0.00000000E+00
-1.80003260E+01  -8.28923420E+00 0.00000000E+00
-1.99951020E+01  -8.28801820E+00 0.00000000E+00
-2.19786610E+01  -8.23145770E+00 0.00000000E+00
3.37062720E+00  1.89233550E+01 0.00000000E+00
3.34054040E+00  1.69807220E+01 0.00000000E+00
3.33640960E+00  1.49944880E+01 0.00000000E+00
3.34315800E+00  1.29984620E+01 0.00000000E+00
3.34957190E+00  1.09995940E+01 0.00000000E+00
3.35198400E+00  8.99989700E+00 0.00000000E+00
3.35113670E+00  6.99997570E+00 0.00000000E+00
3.34448670E+00  4.99999520E+00 0.00000000E+00
3.32652950E+00  2.99973010E+00 0.00000000E+00
3.30527620E+00  9.98020110E-01 0.00000000E+00
3.28119370E+00  -1.01071750E+00 0.00000000E+00
3.25898100E+00  -3.01927690E+00 0.00000000E+00
3.24397130E+00  -5.00071240E+00 0.00000000E+00
1.02151990E+01  2.80007060E+01 0.00000000E+00
8.72700690E+00  2.62242470E+01 0.00000000E+00
4.53118940E+00  2.19883570E+01 0.00000000E+00
7.42255640E+00  2.47146340E+01 0.00000000E+00
6.02210900E+00  2.33871960E+01 0.00000000E+00
-2.49141690E+01  -5.84206680E+00 0.00000000E+00
-2.77587090E+01  -3.09401060E+00 0.00000000E+00
-3.74367330E+00  -1.32242090E+00 0.00000000E+00
3.37542580E+00  -6.68383880E+00 0.00000000E+00
-1.68782010E+00  2.83659060E+01 0.00000000E+00
2.93006830E+00  2.63407250E+01 0.00000000E+00
1.37449420E+00  -6.19837620E+00 0.00000000E+00
-6.99313120E+00  -6.56894300E+00 0.00000000E+00
-8.99560260E+00  -6.58624030E+00 0.00000000E+00
-1.09978490E+01  -6.59370760E+00 0.00000000E+00
-1.29991170E+01  -6.59640880E+00 0.00000000E+00
-1.49997480E+01  -6.59741160E+00 0.00000000E+00
-1.70005050E+01  -6.60687540E+00 0.00000000E+00
-1.89910340E+01  -6.61446950E+00 0.00000000E+00
-2.09443870E+01  -6.58081100E+00 0.00000000E+00
-1.56252810E+00  2.00199760E+01 0.00000000E+00
1.69096430E+00  1.59887320E+01 0.00000000E+00
1.69573750E+00  1.39958910E+01 0.00000000E+00
1.70559000E+00  1.19987360E+01 0.00000000E+00
1.71235800E+00  9.99965000E+00 0.00000000E+00
1.70500430E+00  5.99998620E+00 0.00000000E+00
1.67963390E+00  3.99886890E+00 0.00000000E+00
1.64330440E+00  1.99145820E+00 0.00000000E+00
9.05702950E-01  2.64169080E+01 0.00000000E+00
-1.23154820E+00  2.63408550E+01 0.00000000E+00
-1.48619590E+00  2.40970170E+01 0.00000000E+00
-1.52001480E+00  2.20616050E+01 0.00000000E+00
-1.60393560E+00  1.80015300E+01 0.00000000E+00
1.71200320E+00  7.99990700E+00 0.00000000E+00
1.57110960E+00  -2.04215570E+00 0.00000000E+00
-8.83958100E-01  -6.38697200E+00 0.00000000E+00
-2.94760540E+00  -6.42948390E+00 0.00000000E+00
-4.98543880E+00  -6.52348180E+00 0.00000000E+00
-6.97729590E+00  -3.23084090E+00 0.00000000E+00
-8.98907470E+00  -3.26648520E+00 0.00000000E+00
-1.09956170E+01  -3.28038650E+00 0.00000000E+00
-1.29984200E+01  -3.28506350E+00 0.00000000E+00
-1.49995420E+01  -3.28655890E+00 0.00000000E+00
-1.70005360E+01  -3.29590150E+00 0.00000000E+00
-1.89907720E+01  -3.31196830E+00 0.00000000E+00
-2.09331840E+01  -3.33244610E+00 0.00000000E+00
-1.61828920E+00  1.59975130E+01 0.00000000E+00
-1.61388780E+00  1.39984800E+01 0.00000000E+00
-1.60545460E+00  1.19994560E+01 0.00000000E+00
-1.59979150E+00  9.99984070E+00 0.00000000E+00
-1.59754860E+00  7.99995710E+00 0.00000000E+00
-1.60532560E+00  5.99999000E+00 0.00000000E+00
-1.63823590E+00  3.99409580E+00 0.00000000E+00
-1.70293800E+00  1.96242870E+00 0.00000000E+00
1.60747370E+00  -2.72606200E-02 0.00000000E+00
1.55121040E+00  -4.03328280E+00 0.00000000E+00
4.92077350E+00  2.64265120E+01 0.00000000E+00
1.72852290E+00  1.79747890E+01 0.00000000E+00
-2.27829800E+01  -3.40262840E+00 0.00000000E+00
-2.28547920E+01  -6.42256780E+00 0.00000000E+00
3.40620280E+00  2.06201360E+01 0.00000000E+00
6.79960580E+00  2.64659610E+01 0.00000000E+00
4.04114680E+00  2.42806400E+01 0.00000000E+00
-2.45952820E+01  -3.71108940E+00 0.00000000E+00
1.19858970E+01  2.87429980E+01 0.00000000E+00
-2.63854030E+01  -4.19141440E+00 0.00000000E+00
-2.33982750E+01  -4.86368700E+00 0.00000000E+00
2.28591110E+00  2.22277600E+01 0.00000000E+00
5.53736540E-02  1.69928090E+01 0.00000000E+00
-1.80476700E+00  -1.20870900E-01 0.00000000E+00
[...]
POINT_DATA      243
SCALARS Ux float
LOOKUP_TABLE default
1.00000000E+00
9.28729742E-01
4.66883267E-01
3.83243293E-17
-1.18327663E-17
-2.16840434E-17
7.80625564E-18
2.16840434E-17
-1.56125113E-17
3.90312782E-17
1.56125113E-17
0.00000000E+00
4.66915173E-01
1.00000000E+00
9.98690674E-01
9.94425346E-01
9.87505004E-01
9.78319454E-01
9.67338347E-01
9.55708601E-01
9.44869506E-01
9.36127304E-01
9.30793030E-01
9.26666453E-01
9.20719298E-01
9.10220359E-01
8.94641226E-01
8.73612430E-01
8.47344445E-01
8.16645886E-01
7.82659877E-01
7.46441440E-01
7.08697866E-01
6.69711620E-01
6.29271450E-01
5.86344415E-01
5.37577621E-01
3.95890503E-01
3.46992871E-01
3.03829946E-01
2.62929973E-01
2.23069473E-01
1.83673546E-01
1.44316738E-01
1.04219014E-01
6.05304494E-02
4.63735235E-01
4.54903346E-01
4.40117938E-01
4.19670959E-01
3.94041026E-01
3.64072005E-01
3.30812391E-01
2.95307062E-01
2.58393580E-01
2.20637295E-01
1.82346895E-01
1.43551388E-01
1.03687586E-01
5.99721774E-02
8.98888375E-01
8.42570873E-01
7.96729767E-01
7.54828688E-01
7.14893966E-01
6.76263825E-01
6.38887500E-01
6.03139996E-01
5.69753859E-01
5.39709689E-01
5.14021714E-01
4.93514245E-01
4.78619548E-01
4.70095110E-01
1.00000000E+00
1.00000000E+00
1.00000000E+00
1.00000000E+00
1.00000000E+00
1.00000000E+00
1.80141476E-02
8.91601947E-03
1.09444169E-02
1.86287571E-02
9.83893250E-01
9.26953935E-01
4.17497576E-01
6.50331401E-01
3.68044689E-01
9.73178167E-01
9.61289076E-01
9.49280443E-01
9.39080003E-01
9.18695428E-01
9.05536374E-01
8.87061008E-01
8.62963406E-01
8.33880734E-01
8.00956570E-01
7.65417068E-01
7.28195998E-01
6.89800418E-01
6.09416558E-01
5.65677918E-01
5.15891581E-01
3.24088818E-01
2.82761986E-01
2.42698394E-01
2.03253546E-01
1.64069275E-01
1.24994679E-01
8.60391246E-02
4.57652415E-02
4.70259810E-02
4.64069606E-01
4.51626869E-01
4.33238156E-01
4.09526502E-01
3.81055141E-01
3.48828907E-01
3.13945134E-01
2.77379539E-01
2.39828192E-01
2.01709291E-01
1.63222672E-01
1.24484372E-01
8.54393367E-02
9.13607862E-01
8.62975696E-01
8.16991079E-01
7.74583402E-01
7.34180237E-01
6.95036604E-01
6.56950269E-01
6.20118836E-01
5.85106722E-01
5.52824224E-01
5.24324847E-01
5.00782105E-01
4.83181425E-01
9.93328944E-01
9.90898179E-01
9.70120166E-01
9.88373561E-01
9.82888854E-01
4.25828541E-02
1.08234172E-02
4.65849043E-01
4.72980481E-01
9.32696250E-01
9.53793625E-01
4.67775342E-01
3.69013491E-01
3.34044247E-01
2.97249013E-01
2.59511904E-01
2.21304389E-01
1.82873891E-01
1.44630076E-01
1.07463559E-01
8.81988650E-01
8.33117007E-01
7.92461351E-01
7.52564444E-01
7.13349895E-01
6.36837835E-01
5.99988219E-01
5.64921144E-01
9.40569627E-01
9.29771803E-01
9.18817286E-01
9.03751054E-01
8.53934029E-01
6.74740542E-01
5.05704409E-01
4.50718366E-01
4.28753607E-01
4.00972794E-01
3.82978076E-01
3.41914488E-01
3.01488307E-01
2.61774158E-01
2.22513771E-01
1.83524859E-01
1.44995959E-01
1.07872689E-01
8.21225321E-01
7.85642450E-01
7.48426802E-01
7.10278566E-01
6.71501779E-01
6.32134707E-01
5.91934934E-01
5.50608614E-01
5.32913589E-01
4.84519702E-01
9.68006498E-01
8.73940553E-01
7.39286137E-02
7.26667398E-02
9.46581433E-01
9.80119128E-01
9.61974609E-01
4.59340465E-02
9.97377747E-01
2.53390205E-02
6.53750513E-02
9.38123671E-01
8.44807320E-01
5.10448455E-01
4.21508209E-01
4.68253013E-01
4.24799986E-01
3.92620184E-01
3.56527451E-01
3.18541245E-01
2.79977341E-01
2.41278641E-01
2.02577824E-01
1.64149217E-01
4.83479840E-01
6.15386995E-01
5.77327918E-01
4.54441149E-01
5.08650483E-01
5.40821255E-01
6.53847895E-01
6.92479515E-01
7.31139845E-01
7.69693717E-01
8.07855080E-01
9.22936339E-01
9.05959035E-01
8.78635225E-01
1.26821716E-01
9.10753682E-01
9.24530441E-02
9.76436247E-01
4.78312328E-01
4.48820949E-01
9.41492220E-01
9.30723376E-01
2.13656731E-02
