# vtk DataFile Version 1.0
ECM-CELL DIFFUSION-MECHANICS
ASCII

DATASET UNSTRUCTURED_GRID
POINTS      258 float
1.50000000E+01  3.00000000E+01 0.00000000E+00
-5.00000000E+00  3.00000000E+01 0.00000000E+00
-5.00000000E+00  0.00000000E+00 0.00000000E+00
-2.50000000E+01  0.00000000E+00 0.00000000E+00
-2.69134180E+01  -9.61939810E+00 0.00000000E+00
-2.85355340E+01  -8.53553390E+00 0.00000000E+00
-2.96193980E+01  -6.91341730E+00 0.00000000E+00
-3.00000000E+01  -5.00000000E+00 0.00000000E+00
-2.96193980E+01  -3.08658290E+00 0.00000000E+00
-2.85355340E+01  -1.46446610E+00 0.00000000E+00
-2.69134180E+01  -3.80602330E-01 0.00000000E+00
-2.50000000E+01  -1.00000000E+01 0.00000000E+00
5.00000000E+00  -1.00000000E+01 0.00000000E+00
5.00000000E+00  2.00000000E+01 0.00000000E+00
1.30000000E+01  3.00000000E+01 0.00000000E+00
1.10000000E+01  3.00000000E+01 0.00000000E+00
9.00000000E+00  3.00000000E+01 0.00000000E+00
7.00000000E+00  3.00000000E+01 0.00000000E+00
5.00000000E+00  3.00000000E+01 0.00000000E+00
3.00000000E+00  3.00000000E+01 0.00000000E+00
1.00000000E+00  3.00000000E+01 0.00000000E+00
-1.00000000E+00  3.00000000E+01 0.00000000E+00
-3.00000000E+00  3.00000000E+01 0.00000000E+00
-5.00000000E+00  2.80000000E+01 0.00000000E+00
-5.00000000E+00  2.60000000E+01 0.00000000E+00
-5.00000000E+00  2.40000000E+01 0.00000000E+00
-5.00000000E+00  2.20000000E+01 0.00000000E+00
-5.00000000E+00  2.00000000E+01 0.00000000E+00
-5.00000000E+00  1.80000000E+01 0.00000000E+00
-5.00000000E+00  1.60000000E+01 0.00000000E+00
-5.00000000E+00  1.40000000E+01 0.00000000E+00
-5.00000000E+00  1.20000000E+01 0.00000000E+00
-5.00000000E+00  1.00000000E+01 0.00000000E+00
-5.00000000E+00  8.00000000E+00 0.00000000E+00
-5.00000000E+00  6.00000000E+00 0.00000000E+00
-5.00000000E+00  4.00000000E+00 0.00000000E+00
-5.00000000E+00  2.00000000E+00 0.00000000E+00
-7.00000000E+00  0.00000000E+00 0.00000000E+00
-9.00000000E+00  0.00000000E+00 0.00000000E+00
-1.10000000E+01  0.00000000E+00 0.00000000E+00
-1.30000000E+01  0.00000000E+00 0.00000000E+00
-1.50000000E+01  0.00000000E+00 0.00000000E+00
-1.70000000E+01  0.00000000E+00 0.00000000E+00
-1.90000000E+01  0.00000000E+00 0.00000000E+00
-2.10000000E+01  0.00000000E+00 0.00000000E+00
-2.30000000E+01  0.00000000E+00 0.00000000E+00
3.00000000E+00  -1.00000000E+01 0.00000000E+00
1.00000000E+00  -1.00000000E+01 0.00000000E+00
-1.00000000E+00  -1.00000000E+01 0.00000000E+00
-3.00000000E+00  -1.00000000E+01 0.00000000E+00
-5.00000000E+00  -1.00000000E+01 0.00000000E+00
-7.00000000E+00  -1.00000000E+01 0.00000000E+00
-9.00000000E+00  -1.00000000E+01 0.00000000E+00
-1.10000000E+01  -1.00000000E+01 0.00000000E+00
-1.30000000E+01  -1.00000000E+01 0.00000000E+00
-1.50000000E+01  -1.00000000E+01 0.00000000E+00
-1.70000000E+01  -1.00000000E+01 0.00000000E+00
-1.90000000E+01  -1.00000000E+01 0.00000000E+00
-2.10000000E+01  -1.00000000E+01 0.00000000E+00
-2.30000000E+01  -1.00000000E+01 0.00000000E+00
5.00000000E+00  1.80000000E+01 0.00000000E+00
5.00000000E+00  1.60000000E+01 0.00000000E+00
5.00000000E+00  1.40000000E+01 0.00000000E+00
5.00000000E+00  1.20000000E+01 0.00000000E+00
5.00000000E+00  1.00000000E+01 0.00000000E+00
5.00000000E+00  8.00000000E+00 0.00000000E+00
5.00000000E+00  6.00000000E+00 0.00000000E+00
5.00000000E+00  4.00000000E+00 0.00000000E+00
5.00000000E+00  2.00000000E+00 0.00000000E+00
5.00000000E+00  0.00000000E+00 0.00000000E+00
5.00000000E+00  -2.00000000E+00 0.00000000E+00
5.00000000E+00  -4.00000000E+00 0.00000000E+00
5.00000000E+00  -6.00000000E+00 0.00000000E+00
5.00000000E+00  -8.00000000E+00 0.00000000E+00
6.42857120E+00  2.14285720E+01 0.00000000E+00
7.85714290E+00  2.28571430E+01 0.00000000E+00
9.28571420E+00  2.42857150E+01 0.00000000E+00
1.07142860E+01  2.57142850E+01 0.00000000E+00
1.21428580E+01  2.71428570E+01 0.00000000E+00
1.35714280E+01  2.85714280E+01 0.00000000E+00
-2.55692160E+01  -7.47994950E+00 0.00000000E+00
-2.68123990E+01  -6.65812350E+00 0.00000000E+00
-2.78370070E+01  -5.65078540E+00 0.00000000E+00
-2.49931680E+01  -2.99975060E+00 0.00000000E+00
-6.07402320E+00  -2.51799890E+00 0.00000000E+00
-3.41205380E+00  6.06536290E+00 0.00000000E+00
-7.90601020E+00  -2.16468500E+00 0.00000000E+00
6.93360620E+00  2.85683230E+01 0.00000000E+00
5.03122280E+00  2.85983680E+01 0.00000000E+00
3.07519960E+00  2.83579220E+01 0.00000000E+00
1.02007830E+00  2.82704350E+01 0.00000000E+00
-1.00747930E+00  2.81540110E+01 0.00000000E+00
-2.98253320E+00  2.20530070E+01 0.00000000E+00
-3.14535070E+00  1.99964410E+01 0.00000000E+00
-3.38007400E+00  1.80213890E+01 0.00000000E+00
-3.24730750E+00  1.60810070E+01 0.00000000E+00
-3.22061010E+00  1.40090930E+01 0.00000000E+00
-3.27037720E+00  1.19557340E+01 0.00000000E+00
-3.32515500E+00  9.95609380E+00 0.00000000E+00
-3.37583540E+00  7.99501370E+00 0.00000000E+00
-3.38906220E+00  4.20707270E+00 0.00000000E+00
-3.21241690E+00  2.45526030E+00 0.00000000E+00
-2.81301450E+00  1.00452260E+00 0.00000000E+00
-9.85906700E+00  -1.94350760E+00 0.00000000E+00
-1.18253520E+01  -1.81189600E+00 0.00000000E+00
-1.37737040E+01  -1.72045150E+00 0.00000000E+00
-1.56994910E+01  -1.64893780E+00 0.00000000E+00
-1.76126290E+01  -1.59551540E+00 0.00000000E+00
-1.95252950E+01  -1.56757510E+00 0.00000000E+00
-2.14428200E+01  -1.57937250E+00 0.00000000E+00
-2.40465410E+01  -7.98487000E+00 0.00000000E+00
-2.32975660E+01  -1.60528280E+00 0.00000000E+00
-8.58305330E-01  -8.21509270E+00 0.00000000E+00
-2.85219840E+00  -8.24649330E+00 0.00000000E+00
-4.86234470E+00  -8.28040030E+00 0.00000000E+00
-6.82275490E+00  -8.35858630E+00 0.00000000E+00
-8.72553920E+00  -8.46272760E+00 0.00000000E+00
-1.06668940E+01  -8.49340250E+00 0.00000000E+00
-1.26085230E+01  -8.47250460E+00 0.00000000E+00
-1.45571990E+01  -8.43932820E+00 0.00000000E+00
-1.65147130E+01  -8.41329860E+00 0.00000000E+00
-1.84622020E+01  -8.38815500E+00 0.00000000E+00
-2.03904630E+01  -8.34011360E+00 0.00000000E+00
-2.22757700E+01  -8.22864630E+00 0.00000000E+00
3.32341840E+00  1.79214500E+01 0.00000000E+00
3.49274990E+00  1.58118630E+01 0.00000000E+00
3.45036290E+00  1.38697480E+01 0.00000000E+00
3.40310290E+00  1.19041440E+01 0.00000000E+00
3.36840960E+00  9.92752460E+00 0.00000000E+00
3.33398680E+00  7.94917820E+00 0.00000000E+00
3.27319620E+00  5.98151020E+00 0.00000000E+00
3.14357090E+00  4.00265220E+00 0.00000000E+00
2.93195250E+00  2.00336670E+00 0.00000000E+00
2.85718200E+00  -7.79486520E-02 0.00000000E+00
2.96486330E+00  -2.16540530E+00 0.00000000E+00
3.04931950E+00  -4.18990900E+00 0.00000000E+00
3.07869510E+00  -6.14942600E+00 0.00000000E+00
3.06127830E+00  -8.08621220E+00 0.00000000E+00
8.87478540E+00  2.87956100E+01 0.00000000E+00
1.06500640E+01  2.90019720E+01 0.00000000E+00
9.73117540E+00  2.65182460E+01 0.00000000E+00
4.64431380E+00  2.23340870E+01 0.00000000E+00
8.02427670E+00  2.53785690E+01 0.00000000E+00
6.40424110E+00  2.39808600E+01 0.00000000E+00
-2.30793720E+01  -6.28166200E+00 0.00000000E+00
-2.65148950E+01  -3.90364410E+00 0.00000000E+00
-3.43422220E+00  -1.27146480E+00 0.00000000E+00
1.04067840E+00  2.66475810E+01 0.00000000E+00
1.10761570E+00  -8.16181090E+00 0.00000000E+00
-7.36092030E-01  -6.43063930E+00 0.00000000E+00
-4.75875710E+00  -6.53175260E+00 0.00000000E+00
-6.72676090E+00  -6.65011880E+00 0.00000000E+00
-8.50626940E+00  -6.96918010E+00 0.00000000E+00
-1.03056270E+01  -7.00035810E+00 0.00000000E+00
-1.21338000E+01  -6.91552500E+00 0.00000000E+00
-1.40198870E+01  -6.83708530E+00 0.00000000E+00
-1.59333120E+01  -6.77759310E+00 0.00000000E+00
-1.20785130E+00  1.97240960E+01 0.00000000E+00
-1.32478480E+00  1.64232350E+01 0.00000000E+00
1.96661810E+00  1.56013530E+01 0.00000000E+00
1.83737340E+00  1.38039750E+01 0.00000000E+00
1.66680230E+00  7.95078230E+00 0.00000000E+00
1.58930700E+00  6.05578280E+00 0.00000000E+00
1.41368440E+00  4.18972210E+00 0.00000000E+00
-2.88116500E+00  2.41189420E+01 0.00000000E+00
-1.05743060E+00  2.20182400E+01 0.00000000E+00
-2.06459260E+00  1.80287820E+01 0.00000000E+00
1.76209580E+00  1.18621570E+01 0.00000000E+00
1.71383550E+00  9.90428640E+00 0.00000000E+00
-1.96961380E+01  -6.65574450E+00 0.00000000E+00
1.10382270E+00  -2.44856600E+00 0.00000000E+00
-2.71728680E+00  -6.50229880E+00 0.00000000E+00
-6.94966460E+00  -4.68074230E+00 0.00000000E+00
-8.87774660E+00  -3.94481040E+00 0.00000000E+00
-1.07458330E+01  -3.67898370E+00 0.00000000E+00
-1.26495610E+01  -3.53031300E+00 0.00000000E+00
-1.45555060E+01  -3.42598990E+00 0.00000000E+00
-1.64351330E+01  -3.33984760E+00 0.00000000E+00
-1.82789100E+01  -3.26375910E+00 0.00000000E+00
-1.78273370E+01  -6.72471860E+00 0.00000000E+00
-2.00785790E+01  -3.19971040E+00 0.00000000E+00
-1.49681840E+00  1.40206600E+01 0.00000000E+00
-1.58211720E+00  1.19191850E+01 0.00000000E+00
-1.64738950E+00  9.92495730E+00 0.00000000E+00
-1.70833540E+00  7.99023060E+00 0.00000000E+00
-1.75975440E+00  6.13986830E+00 0.00000000E+00
-1.75903370E+00  4.42714830E+00 0.00000000E+00
-1.57233490E+00  2.89093950E+00 0.00000000E+00
8.35785090E-01  2.16724940E+00 0.00000000E+00
6.82180050E-01  -2.41043480E-01 0.00000000E+00
1.19283760E+00  -4.42227750E+00 0.00000000E+00
5.08530000E+00  2.73792100E+01 0.00000000E+00
3.36510830E+00  2.64843390E+01 0.00000000E+00
2.03854510E+00  1.69918710E+01 0.00000000E+00
-2.18747600E+01  -3.21142750E+00 0.00000000E+00
-2.14750770E+01  -6.53344300E+00 0.00000000E+00
3.87977890E+00  2.02254430E+01 0.00000000E+00
6.80135920E+00  2.67542230E+01 0.00000000E+00
3.63350840E+00  2.38850380E+01 0.00000000E+00
-2.38274770E+01  -3.46659900E+00 0.00000000E+00
1.18041360E+00  -6.30371430E+00 0.00000000E+00
-9.38736620E-01  2.63029140E+01 0.00000000E+00
1.22929610E+01  2.88663250E+01 0.00000000E+00
-2.54329400E+01  -4.97643760E+00 0.00000000E+00
-2.34656640E+01  -4.58569380E+00 0.00000000E+00
2.50105620E+00  2.18994750E+01 0.00000000E+00
1.02533670E+00  1.74530890E+01 0.00000000E+00
-2.03710100E+00  -2.63990820E-01 0.00000000E+00
-2.58995530E+00  -4.80094000E+00 0.00000000E+00
-8.48027420E+00  -5.76261620E+00 0.00000000E+00
-9.76420500E+00  -5.45034360E+00 0.00000000E+00
-1.15105400E+01  -5.29605010E+00 0.00000000E+00
-1.33758340E+01  -5.19502780E+00 0.00000000E+00
-1.39613940E-01  4.48769760E+00 0.00000000E+00
-4.65231040E+00  -4.77523040E+00 0.00000000E+00
-6.82374060E-01  -2.91642620E+00 0.00000000E+00
-1.52690410E+01  -5.11363980E+00 0.00000000E+00
-6.56300780E-02  6.15421580E+00 0.00000000E+00
-1.08489250E+00  -1.39932160E+00 0.00000000E+00
-1.06679820E+00  1.62087170E+00 0.00000000E+00
-1.24161230E-02  7.98827740E+00 0.00000000E+00
8.48017860E-02  1.18839490E+01 0.00000000E+00
3.37320900E-02  9.92000010E+00 0.00000000E+00
1.64119600E-01  1.38965880E+01 0.00000000E+00
4.08286780E-01  1.58328870E+01 0.00000000E+00
6.25480000E-01  2.03010690E+01 0.00000000E+00
-1.50913820E-01  1.81863230E+01 0.00000000E+00
-1.71419280E+01  -5.04282710E+00 0.00000000E+00
-1.89704080E+01  -4.97220180E+00 0.00000000E+00
-5.94378110E-01  2.42636070E+01 0.00000000E+00
1.91058230E+00  1.87361510E+01 0.00000000E+00
-2.22677990E+01  -4.73615550E+00 0.00000000E+00
5.08411070E+00  2.51987480E+01 0.00000000E+00
-6.61113380E-01  -4.65103960E+00 0.00000000E+00
-2.35311750E+00  -1.99394410E+00 0.00000000E+00
7.17164220E-01  2.19067990E+01 0.00000000E+00
2.42589620E+00  2.30299230E+01 0.00000000E+00
-4.26703170E+00  -2.97138120E+00 0.00000000E+00
-2.47106890E+00  -3.21366310E+00 0.00000000E+00
-2.95505740E+00  2.61031110E+01 0.00000000E+00
-2.44062840E+01  -5.78745650E+00 0.00000000E+00
1.11900010E+01  2.76029590E+01 0.00000000E+00
-3.00564530E+00  2.80624600E+01 0.00000000E+00
-2.86195680E+01  -4.77531340E+00 0.00000000E+00
-2.77284530E+01  -2.32228160E+00 0.00000000E+00
-2.65301880E+01  -2.03538250E+00 0.00000000E+00
-2.49753170E+01  -1.63643460E+00 0.00000000E+00
-2.81240730E+01  -3.52081490E+00 0.00000000E+00
8.99391650E+00  2.75412900E+01 0.00000000E+00
2.33917480E+00  2.03422550E+01 0.00000000E+00
1.04003120E+01  2.80933590E+01 0.00000000E+00
-8.09095620E-01  4.35396370E-01 0.00000000E+00
2.31196760E+00  2.47869630E+01 0.00000000E+00
-2.07040230E+01  -4.87518070E+00 0.00000000E+00
8.12728230E-01  1.91052380E+01 0.00000000E+00
9.86865880E-01  2.53211290E+01 0.00000000E+00
1.19369020E+00  2.34800300E+01 0.00000000E+00
-2.93027850E-01  3.20813230E+00 0.00000000E+00

CELLS      217     1085
   4         142         140         248        197
   4          21          91          90         20
   4          49         113         114         50
   4          64         128         129         65
   4          37          86          84          2
   4         110          11          59        123
   4           5           4          80         81
   4         109         194         180        108
   4           7           6          82        243
   4         144         240          80        110
   4         245         145          83        246
   4          87          17          18         88
   4         138          87         197        248
   4          89          19          20         90
   4         192         191          88         89
   4          22         242          91         21
   4           1          23         242         22
   4          25          26          92        164
   4          89          90         147        192
   4         201         239         164        229
   4          93          92          26         27
   4          94          93          27         28
   4          95          94          28         29
   4          96          95          29         30
   4          97          96          30         31
   4          98          97          31         32
   4          85          99          33         34
   4         100          85          34         35
   4         101         100          35         36
   4         102         101          36          2
   4         149         233         208        171
   4          38         103          86         37
   4          39         104         103         38
   4          40         105         104         39
   4          41         106         105         40
   4          42         107         106         41
   4          43         108         107         42
   4          44         109         108         43
   4         122          58          57        121
   4          82          81         203        145
   4          46          12          73        137
   4          46         137         148         47
   4         170         190         135        134
   4          48         112         113         49
   4          50         114         115         51
   4         114         150         151        115
   4         152         116         115        151
   4         152         153         117        116
   4         153         154         118        117
   4         154         155         119        118
   4         155         156         120        119
   4         249         225         254        230
   4         230         206         193        124
   4         166         158         226        157
   4         160         159         224        223
   4         159         160         126        125
   4          63         127         128         64
   4          65         129         130         66
   4         130         129         161        162
   4         162         163         131        130
   4          69         133         134         70
   4          70         134         135         71
   4          71         135         136         72
   4          72         136         137         73
   4          17          87         138         16
   4          16         138         139         15
   4          14         202          79          0
   4         202          14          15        139
   4           9         244         245         10
   4          80           4          11        110
   4          81          82           6          5
   4         247         243          82        145
   4          45         111         109         44
   4          10         245         246          3
   4          51         115         116         52
   4          88          18          19         89
   4         142          76          77        140
   4         142         143          75         76
   4         198         232         192        252
   4         165         229         164         92
   4          23          24         239        242
   4          93         157         165         92
   4         206         226         158        224
   4          60         124         125         61
   4          61         125         126         62
   4          62         126         127         63
   4          99          98          32         33
   4         160         167         127        126
   4         221         182         183        222
   4          66         130         131         67
   4          67         131         132         68
   4         146           2          84        237
   4          68         132         133         69
   4          52         116         117         53
   4          53         117         118         54
   4          54         118         119         55
   4          55         119         120         56
   4          56         120         121         57
   4         123         122         169        195
   4         111          45           3        246
   4         111         199         194        109
   4         123          59          58        122
   4         203         199          83        145
   4         112          48          47        148
   4         234         218         207        146
   4         171         113         112        149
   4         214         208         238        237
   4         214         172         151        150
   4         209         210         153        152
   4         153         210         211        154
   4         154         211         212        155
   4         216         176         177        227
   4         227         177         178        228
   4         156         179         121        120
   4         108         180         178        107
   4         144         231         204        240
   4         124          60          13        196
   4         141         196          13         74
   4         181         223         224        158
   4         223         181         182        221
   4         222         183         184        220
   4          99         184         183         98
   4         184         185         217        220
   4         185         186         213        217
   4         186         187         257        213
   4         163         188         132        131
   4         219         188         257        187
   4         234         238         215        218
   4         215         233         190        170
   4         190         200         136        135
   4         200         148         137        136
   4          77          78         241        140
   4         241         202         139        250
   4          74          75         143        141
   4          88         191         197         87
   4         110         123         195        144
   4         102           2         146        207
   4         172         214         237         84
   4          90          91         201        147
   4         226         206         230        254
   4         112         148         200        149
   4         150         114         113        171
   4          86         173         172         84
   4         103         174         173         86
   4         104         175         174        103
   4         105         176         175        104
   4         106         177         176        105
   4         107         178         177        106
   4         158         166          94         95
   4          95          96         181        158
   4         181          96          97        182
   4         125         124         193        159
   4         129         128         168        161
   4          85         185         184         99
   4         100         186         185         85
   4         101         187         186        100
   4          24          25         164        239
   4         255         229         256        252
   4         157          93          94        166
   4          98         183         182         97
   4         128         127         167        168
   4         122         121         179        169
   4         204         231         194        199
   4         134         133         189        170
   4         173         210         209        172
   4         174         211         210        173
   4         175         212         211        174
   4         176         216         212        175
   4         179         227         228        169
   4         227         179         156        216
   4         231         253         180        194
   4         187         101         102        219
   4         251         207         218        189
   4         132         188         189        133
   4         188         163         213        257
   4         200         190         233        149
   4         232         197         191        192
   4         252         256         236        198
   4         230         124         196        249
   4         111         246          83        199
   4         195         253         231        144
   4         205         141         198        236
   4         198         141         143        232
   4         199         203         240        204
   4         239         201          91        242
   4          78          79         202        241
   4         240         203          81         80
   4         236         256         235        205
   4         196         141         205        249
   4         159         193         206        224
   4         219         102         207        251
   4         171         208         214        150
   4         209         152         151        172
   4         217         213         163        162
   4         215         238         208        233
   4         216         156         155        212
   4         220         217         162        161
   4         188         219         251        189
   4         222         220         161        168
   4         168         167         221        222
   4         223         221         167        160
   4         225         235         165        157
   4         228         178         180        253
   4         232         143         142        197
   4         201         229         255        147
   4         146         237         238        234
   4         205         235         225        249
   4           8           7         243        247
   4         247         244           9          8
   4         145         245         244        247
   4         250         248         140        241
   4         138         248         250        139
   4         252         192         147        255
   4         253         195         169        228
   4         157         226         254        225
   4         256         229         165        235
   4         170         189         218        215

CELL_TYPES      217
   9
   9
   9
   9
   9
   9
   9
   9
   9
   9
   9
   9
   9
   9
   9
   9
   9
   9
   9
   9
   9
   9
   9
   9
   9
   9
   9
   9
   9
   9
   9
   9
   9
   9
   9
   9
   9
   9
   9
   9
   9
   9
   9
   9
   9
   9
   9
   9
   9
   9
   9
   9
   9
   9
   9
   9
   9
   9
   9
   9
   9
   9
   9
   9
   9
   9
   9
   9
   9
   9
   9
   9
   9
   9
   9
   9
   9
   9
   9
   9
   9
   9
   9
   9
   9
   9
   9
   9
   9
   9
   9
   9
   9
   9
   9
   9
   9
   9
   9
   9
   9
   9
   9
   9
   9
   9
   9
   9
   9
   9
   9
   9
   9
   9
   9
   9
   9
   9
   9
   9
   9
   9
   9
   9
   9
   9
   9
   9
   9
   9
   9
   9
   9
   9
   9
   9
   9
   9
   9
   9
   9
   9
   9
   9
   9
   9
   9
   9
   9
   9
   9
   9
   9
   9
   9
   9
   9
   9
   9
   9
   9
   9
   9
   9
   9
   9
   9
   9
   9
   9
   9
   9
   9
   9
   9
   9
   9
   9
   9
   9
   9
   9
   9
   9
   9
   9
   9
   9
   9
   9
   9
   9
   9
   9
   9
   9
   9
   9
   9
   9
   9
   9
   9
   9
   9
   9
   9
   9
   9
   9
   9
   9
   9
   9
   9
   9
   9

POINT_DATA      258
SCALARS Ux float
LOOKUP_TABLE default
1.00000000E+00
9.24930415E-01
4.64052479E-01
6.93889390E-18
-1.73472348E-17
2.77555756E-17
-1.86482774E-17
-2.51534904E-17
-6.50521303E-18
8.67361738E-19
1.38777878E-17
-6.93889390E-17
4.64795003E-01
1.00000000E+00
9.98712060E-01
9.94388442E-01
9.86971797E-01
9.76950983E-01
9.65213759E-01
9.52887696E-01
9.41563533E-01
9.32583210E-01
9.26864788E-01
9.22897728E-01
9.16558555E-01
9.05553007E-01
8.89611252E-01
8.68534092E-01
8.42354521E-01
8.11569646E-01
7.77742255E-01
7.41868851E-01
7.04512058E-01
6.65978608E-01
6.26095727E-01
5.83919918E-01
5.36604690E-01
3.93258856E-01
3.45585098E-01
3.03187203E-01
2.62897723E-01
2.23605595E-01
1.84784794E-01
1.46080806E-01
1.06837107E-01
6.62102924E-02
4.61913020E-01
4.53098488E-01
4.38395678E-01
4.18039460E-01
3.92618837E-01
3.62995904E-01
3.30128078E-01
2.95014316E-01
2.58522282E-01
2.21212367E-01
1.83388218E-01
1.45116703E-01
1.05984399E-01
6.42845302E-02
8.84483028E-01
8.34829888E-01
7.90260902E-01
7.49279394E-01
7.09992000E-01
6.71906107E-01
6.35007444E-01
5.99729172E-01
5.66886518E-01
5.37287212E-01
5.11774739E-01
4.91306361E-01
4.76550777E-01
4.67698548E-01
1.00000000E+00
1.00000000E+00
1.00000000E+00
1.00000000E+00
1.00000000E+00
1.00000000E+00
2.77852098E-02
1.90079988E-02
1.28453781E-02
3.92737399E-02
4.02002516E-01
6.27998548E-01
3.67112945E-01
9.77046065E-01
9.65614825E-01
9.53023369E-01
9.40755188E-01
9.31103675E-01
8.92980621E-01
8.70710184E-01
8.44169593E-01
8.14002602E-01
7.78745903E-01
7.41555495E-01
7.04041063E-01
6.66270195E-01
5.89546933E-01
5.50824694E-01
5.23260563E-01
3.25817517E-01
2.85891820E-01
2.47387782E-01
2.09895149E-01
1.72930314E-01
1.36013096E-01
9.87542186E-02
5.03547548E-02
6.02684533E-02
4.41908229E-01
4.21754076E-01
3.96118864E-01
3.66853528E-01
3.35459566E-01
3.01376875E-01
2.65990411E-01
2.29683566E-01
1.92722425E-01
1.55607826E-01
1.18471739E-01
8.12368390E-02
8.80939371E-01
8.28520231E-01
7.86784180E-01
7.46885152E-01
7.08242757E-01
6.70581288E-01
6.34136185E-01
5.98807833E-01
5.65169955E-01
5.33698410E-01
5.07042178E-01
4.86917734E-01
4.73024171E-01
4.64749126E-01
9.86861597E-01
9.93618064E-01
9.94200287E-01
9.69824009E-01
9.89170897E-01
9.83189773E-01
7.15036821E-02
2.40740213E-02
4.69308050E-01
9.38181673E-01
4.56186486E-01
4.49927554E-01
4.02624859E-01
3.71875740E-01
3.41170646E-01
3.09059979E-01
2.75556483E-01
2.40283330E-01
2.04096959E-01
8.74732862E-01
8.23919857E-01
8.20123883E-01
7.83134659E-01
6.69569193E-01
6.34026902E-01
5.99709112E-01
9.09169486E-01
9.01130094E-01
8.47377208E-01
7.44725450E-01
7.06811868E-01
1.32614469E-01
4.96102985E-01
4.29523557E-01
3.74957730E-01
3.41366050E-01
3.05468766E-01
2.68466530E-01
2.31595842E-01
1.95422200E-01
1.60099771E-01
1.68099877E-01
1.25815160E-01
7.81182276E-01
7.42188556E-01
7.04452969E-01
6.67289937E-01
6.31181140E-01
5.97166543E-01
5.67343882E-01
5.62702897E-01
5.23113562E-01
4.77234468E-01
9.66447172E-01
9.53972183E-01
8.49381951E-01
9.18212726E-02
9.95663134E-02
9.46379531E-01
9.78571532E-01
9.54247142E-01
5.84243156E-02
4.64185981E-01
9.26972404E-01
9.97847478E-01
3.74937182E-02
6.61902880E-02
9.32655853E-01
8.52592399E-01
5.02999235E-01
4.41706138E-01
3.43942071E-01
3.21126407E-01
2.88674352E-01
2.53344165E-01
6.02094062E-01
4.13263679E-01
4.78867531E-01
2.17264733E-01
6.33766159E-01
4.94307325E-01
5.45500393E-01
6.68794638E-01
7.43310145E-01
7.05737101E-01
7.81786368E-01
8.19122055E-01
8.94202455E-01
8.58287530E-01
1.81546361E-01
1.46830470E-01
9.19830449E-01
8.84547384E-01
8.64181446E-02
9.68244692E-01
4.62435604E-01
4.73159721E-01
9.12552824E-01
9.38939183E-01
4.34617409E-01
4.57682134E-01
9.19404942E-01
5.13192182E-02
9.96801753E-01
9.25033861E-01
7.67121514E-03
7.83514793E-03
1.54705443E-02
3.13597959E-02
8.91104819E-03
9.88985595E-01
9.14623316E-01
9.93594107E-01
5.25515713E-01
9.43471651E-01
1.14407238E-01
8.79784409E-01
9.34568997E-01
9.28465066E-01
5.77684616E-01
