# vtk DataFile Version 1.0
ECM-CELL DIFFUSION-MECHANICS
ASCII

DATASET UNSTRUCTURED_GRID
POINTS      889 float
1.50000000E+01  3.00000000E+01 0.00000000E+00
-5.00000000E+00  3.00000000E+01 0.00000000E+00
-5.00000000E+00  0.00000000E+00 0.00000000E+00
-2.50000000E+01  0.00000000E+00 0.00000000E+00
-2.69134180E+01  -9.61939810E+00 0.00000000E+00
-2.85355340E+01  -8.53553390E+00 0.00000000E+00
-2.96193980E+01  -6.91341730E+00 0.00000000E+00
-3.00000000E+01  -5.00000000E+00 0.00000000E+00
-2.96193980E+01  -3.08658290E+00 0.00000000E+00
-2.85355340E+01  -1.46446610E+00 0.00000000E+00
-2.69134180E+01  -3.80602330E-01 0.00000000E+00
-2.50000000E+01  -1.00000000E+01 0.00000000E+00
5.00000000E+00  -1.00000000E+01 0.00000000E+00
5.00000000E+00  2.00000000E+01 0.00000000E+00
1.30000000E+01  3.00000000E+01 0.00000000E+00
1.10000000E+01  3.00000000E+01 0.00000000E+00
9.00000000E+00  3.00000000E+01 0.00000000E+00
7.00000000E+00  3.00000000E+01 0.00000000E+00
5.00000000E+00  3.00000000E+01 0.00000000E+00
3.00000000E+00  3.00000000E+01 0.00000000E+00
1.00000000E+00  3.00000000E+01 0.00000000E+00
-1.00000000E+00  3.00000000E+01 0.00000000E+00
-3.00000000E+00  3.00000000E+01 0.00000000E+00
-5.00000000E+00  2.80000000E+01 0.00000000E+00
-5.00000000E+00  2.60000000E+01 0.00000000E+00
-5.00000000E+00  2.40000000E+01 0.00000000E+00
-5.00000000E+00  2.20000000E+01 0.00000000E+00
-5.00000000E+00  2.00000000E+01 0.00000000E+00
-5.00000000E+00  1.80000000E+01 0.00000000E+00
-5.00000000E+00  1.60000000E+01 0.00000000E+00
-5.00000000E+00  1.40000000E+01 0.00000000E+00
-5.00000000E+00  1.20000000E+01 0.00000000E+00
-5.00000000E+00  1.00000000E+01 0.00000000E+00
-5.00000000E+00  8.00000000E+00 0.00000000E+00
-5.00000000E+00  6.00000000E+00 0.00000000E+00
-5.00000000E+00  4.00000000E+00 0.00000000E+00
-5.00000000E+00  2.00000000E+00 0.00000000E+00
-7.00000000E+00  0.00000000E+00 0.00000000E+00
-9.00000000E+00  0.00000000E+00 0.00000000E+00
-1.10000000E+01  0.00000000E+00 0.00000000E+00
-1.30000000E+01  0.00000000E+00 0.00000000E+00
-1.50000000E+01  0.00000000E+00 0.00000000E+00
-1.70000000E+01  0.00000000E+00 0.00000000E+00
-1.90000000E+01  0.00000000E+00 0.00000000E+00
-2.10000000E+01  0.00000000E+00 0.00000000E+00
-2.30000000E+01  0.00000000E+00 0.00000000E+00
3.00000000E+00  -1.00000000E+01 0.00000000E+00
1.00000000E+00  -1.00000000E+01 0.00000000E+00
-1.00000000E+00  -1.00000000E+01 0.00000000E+00
-3.00000000E+00  -1.00000000E+01 0.00000000E+00
-5.00000000E+00  -1.00000000E+01 0.00000000E+00
-7.00000000E+00  -1.00000000E+01 0.00000000E+00
-9.00000000E+00  -1.00000000E+01 0.00000000E+00
-1.10000000E+01  -1.00000000E+01 0.00000000E+00
-1.30000000E+01  -1.00000000E+01 0.00000000E+00
-1.50000000E+01  -1.00000000E+01 0.00000000E+00
-1.70000000E+01  -1.00000000E+01 0.00000000E+00
-1.90000000E+01  -1.00000000E+01 0.00000000E+00
-2.10000000E+01  -1.00000000E+01 0.00000000E+00
-2.30000000E+01  -1.00000000E+01 0.00000000E+00
5.00000000E+00  1.80000000E+01 0.00000000E+00
5.00000000E+00  1.60000000E+01 0.00000000E+00
5.00000000E+00  1.40000000E+01 0.00000000E+00
5.00000000E+00  1.20000000E+01 0.00000000E+00
5.00000000E+00  1.00000000E+01 0.00000000E+00
5.00000000E+00  8.00000000E+00 0.00000000E+00
5.00000000E+00  6.00000000E+00 0.00000000E+00
5.00000000E+00  4.00000000E+00 0.00000000E+00
5.00000000E+00  2.00000000E+00 0.00000000E+00
5.00000000E+00  0.00000000E+00 0.00000000E+00
5.00000000E+00  -2.00000000E+00 0.00000000E+00
5.00000000E+00  -4.00000000E+00 0.00000000E+00
5.00000000E+00  -6.00000000E+00 0.00000000E+00
5.00000000E+00  -8.00000000E+00 0.00000000E+00
6.42857120E+00  2.14285720E+01 0.00000000E+00
7.85714290E+00  2.28571430E+01 0.00000000E+00
9.28571420E+00  2.42857150E+01 0.00000000E+00
1.07142860E+01  2.57142850E+01 0.00000000E+00
1.21428580E+01  2.71428570E+01 0.00000000E+00
1.35714280E+01  2.85714280E+01 0.00000000E+00
-2.63336370E+01  -7.76659110E+00 0.00000000E+00
-2.82226870E+01  -6.43824340E+00 0.00000000E+00
-2.81175650E+01  -4.60588840E+00 0.00000000E+00
-2.61591430E+01  -2.10037330E+00 0.00000000E+00
7.94419190E+00  2.81601090E+01 0.00000000E+00
-3.19118240E+00  2.72962760E+01 0.00000000E+00
-5.94074680E+00  -1.56135580E+00 0.00000000E+00
-3.28010940E+00  6.99999670E+00 0.00000000E+00
-7.98214870E+00  -1.62386550E+00 0.00000000E+00
5.94069960E+00  2.82131770E+01 0.00000000E+00
3.96576310E+00  2.81945500E+01 0.00000000E+00
1.96850980E+00  2.81876320E+01 0.00000000E+00
-9.25469860E-03  2.82110810E+01 0.00000000E+00
-3.19306160E+00  2.51208880E+01 0.00000000E+00
-3.24140290E+00  2.30419270E+01 0.00000000E+00
-3.26721170E+00  2.10157700E+01 0.00000000E+00
-3.29015900E+00  1.90030120E+01 0.00000000E+00
-3.29848810E+00  1.69995920E+01 0.00000000E+00
-3.29507470E+00  1.49994570E+01 0.00000000E+00
-3.28950330E+00  1.29997450E+01 0.00000000E+00
-3.28517390E+00  1.09999160E+01 0.00000000E+00
-3.28540470E+00  8.99997520E+00 0.00000000E+00
-3.28817060E+00  4.99999900E+00 0.00000000E+00
-3.32450200E+00  2.98746320E+00 0.00000000E+00
-3.41863850E+00  9.27179160E-01 0.00000000E+00
-9.99433710E+00  -1.64214650E+00 0.00000000E+00
-1.19982300E+01  -1.64728790E+00 0.00000000E+00
-1.39994690E+01  -1.64868800E+00 0.00000000E+00
-1.59998930E+01  -1.64905520E+00 0.00000000E+00
-1.80005170E+01  -1.65485740E+00 0.00000000E+00
-1.99944210E+01  -1.67004960E+00 0.00000000E+00
-2.19607010E+01  -1.70543470E+00 0.00000000E+00
-2.40205900E+01  -8.05579760E+00 0.00000000E+00
-2.39267060E+01  -1.82353290E+00 0.00000000E+00
2.29777120E+00  -8.18962100E+00 0.00000000E+00
1.23059470E-01  -8.18267440E+00 0.00000000E+00
-1.95802190E+00  -8.22096160E+00 0.00000000E+00
-3.98471190E+00  -8.24636460E+00 0.00000000E+00
-5.99523780E+00  -8.26851940E+00 0.00000000E+00
-7.99814990E+00  -8.27763180E+00 0.00000000E+00
-9.99911310E+00  -8.28131580E+00 0.00000000E+00
-1.19996180E+01  -8.28250790E+00 0.00000000E+00
-1.39998580E+01  -8.28286650E+00 0.00000000E+00
-1.59999980E+01  -8.28308960E+00 0.00000000E+00
-1.80003260E+01  -8.28923420E+00 0.00000000E+00
-1.99951020E+01  -8.28801820E+00 0.00000000E+00
-2.19786610E+01  -8.23145770E+00 0.00000000E+00
3.37062720E+00  1.89233550E+01 0.00000000E+00
3.34054040E+00  1.69807220E+01 0.00000000E+00
3.33640960E+00  1.49944880E+01 0.00000000E+00
3.34315800E+00  1.29984620E+01 0.00000000E+00
3.34957190E+00  1.09995940E+01 0.00000000E+00
3.35198400E+00  8.99989700E+00 0.00000000E+00
3.35113670E+00  6.99997570E+00 0.00000000E+00
3.34448670E+00  4.99999520E+00 0.00000000E+00
3.32652950E+00  2.99973010E+00 0.00000000E+00
3.30527620E+00  9.98020110E-01 0.00000000E+00
3.28119370E+00  -1.01071750E+00 0.00000000E+00
3.25898100E+00  -3.01927690E+00 0.00000000E+00
3.24397130E+00  -5.00071240E+00 0.00000000E+00
1.02151990E+01  2.80007060E+01 0.00000000E+00
8.72700690E+00  2.62242470E+01 0.00000000E+00
4.53118940E+00  2.19883570E+01 0.00000000E+00
7.42255640E+00  2.47146340E+01 0.00000000E+00
6.02210900E+00  2.33871960E+01 0.00000000E+00
-2.49141690E+01  -5.84206680E+00 0.00000000E+00
-2.77587090E+01  -3.09401060E+00 0.00000000E+00
-3.74367330E+00  -1.32242090E+00 0.00000000E+00
3.37542580E+00  -6.68383880E+00 0.00000000E+00
-1.68782010E+00  2.83659060E+01 0.00000000E+00
2.93006830E+00  2.63407250E+01 0.00000000E+00
1.37449420E+00  -6.19837620E+00 0.00000000E+00
-6.99313120E+00  -6.56894300E+00 0.00000000E+00
-8.99560260E+00  -6.58624030E+00 0.00000000E+00
-1.09978490E+01  -6.59370760E+00 0.00000000E+00
-1.29991170E+01  -6.59640880E+00 0.00000000E+00
-1.49997480E+01  -6.59741160E+00 0.00000000E+00
-1.70005050E+01  -6.60687540E+00 0.00000000E+00
-1.89910340E+01  -6.61446950E+00 0.00000000E+00
-2.09443870E+01  -6.58081100E+00 0.00000000E+00
-1.56252810E+00  2.00199760E+01 0.00000000E+00
1.69096430E+00  1.59887320E+01 0.00000000E+00
1.69573750E+00  1.39958910E+01 0.00000000E+00
1.70559000E+00  1.19987360E+01 0.00000000E+00
1.71235800E+00  9.99965000E+00 0.00000000E+00
1.70500430E+00  5.99998620E+00 0.00000000E+00
1.67963390E+00  3.99886890E+00 0.00000000E+00
1.64330440E+00  1.99145820E+00 0.00000000E+00
9.05702950E-01  2.64169080E+01 0.00000000E+00
-1.23154820E+00  2.63408550E+01 0.00000000E+00
-1.48619590E+00  2.40970170E+01 0.00000000E+00
-1.52001480E+00  2.20616050E+01 0.00000000E+00
-1.60393560E+00  1.80015300E+01 0.00000000E+00
1.71200320E+00  7.99990700E+00 0.00000000E+00
1.57110960E+00  -2.04215570E+00 0.00000000E+00
-8.83958100E-01  -6.38697200E+00 0.00000000E+00
-2.94760540E+00  -6.42948390E+00 0.00000000E+00
-4.98543880E+00  -6.52348180E+00 0.00000000E+00
-6.97729590E+00  -3.23084090E+00 0.00000000E+00
-8.98907470E+00  -3.26648520E+00 0.00000000E+00
-1.09956170E+01  -3.28038650E+00 0.00000000E+00
-1.29984200E+01  -3.28506350E+00 0.00000000E+00
-1.49995420E+01  -3.28655890E+00 0.00000000E+00
-1.70005360E+01  -3.29590150E+00 0.00000000E+00
-1.89907720E+01  -3.31196830E+00 0.00000000E+00
-2.09331840E+01  -3.33244610E+00 0.00000000E+00
-1.61828920E+00  1.59975130E+01 0.00000000E+00
-1.61388780E+00  1.39984800E+01 0.00000000E+00
-1.60545460E+00  1.19994560E+01 0.00000000E+00
-1.59979150E+00  9.99984070E+00 0.00000000E+00
-1.59754860E+00  7.99995710E+00 0.00000000E+00
-1.60532560E+00  5.99999000E+00 0.00000000E+00
-1.63823590E+00  3.99409580E+00 0.00000000E+00
-1.70293800E+00  1.96242870E+00 0.00000000E+00
1.60747370E+00  -2.72606200E-02 0.00000000E+00
1.55121040E+00  -4.03328280E+00 0.00000000E+00
4.92077350E+00  2.64265120E+01 0.00000000E+00
1.72852290E+00  1.79747890E+01 0.00000000E+00
-2.27829800E+01  -3.40262840E+00 0.00000000E+00
-2.28547920E+01  -6.42256780E+00 0.00000000E+00
3.40620280E+00  2.06201360E+01 0.00000000E+00
6.79960580E+00  2.64659610E+01 0.00000000E+00
4.04114680E+00  2.42806400E+01 0.00000000E+00
-2.45952820E+01  -3.71108940E+00 0.00000000E+00
1.19858970E+01  2.87429980E+01 0.00000000E+00
-2.63854030E+01  -4.19141440E+00 0.00000000E+00
-2.33982750E+01  -4.86368700E+00 0.00000000E+00
2.28591110E+00  2.22277600E+01 0.00000000E+00
5.53736540E-02  1.69928090E+01 0.00000000E+00
-1.80476700E+00  -1.20870900E-01 0.00000000E+00
[...]
POINT_DATA      889
SCALARS Ux float
LOOKUP_TABLE default
1.00000000E+00
9.25057962E-01
4.73808439E-01
-1.11022302E-16
2.64545330E-17
-2.23345648E-17
1.95156391E-17
1.36609474E-17
3.05745013E-17
1.30104261E-17
-2.66713734E-17
6.93889390E-18
4.67996545E-01
1.00000000E+00
9.98845364E-01
9.94678609E-01
9.87513806E-01
9.77719797E-01
9.66245720E-01
9.53974574E-01
9.42673028E-01
9.33698191E-01
9.27972451E-01
9.23565038E-01
9.17878534E-01
9.07447217E-01
8.92047646E-01
8.71160971E-01
8.45198049E-01
8.14987386E-01
7.81576001E-01
7.45935443E-01
7.08987727E-01
6.71306108E-01
6.30146304E-01
5.88674741E-01
5.42568215E-01
3.94261687E-01
3.47417311E-01
3.05341981E-01
2.65282983E-01
2.26156812E-01
1.87471460E-01
1.48896279E-01
1.09891475E-01
6.91496430E-02
4.63974761E-01
4.54552620E-01
4.39157834E-01
4.18123188E-01
3.92115323E-01
3.61814381E-01
3.28295018E-01
2.92828180E-01
2.56183705E-01
2.18827405E-01
1.81015279E-01
1.42763333E-01
1.03279125E-01
6.35178779E-02
8.86763460E-01
8.33640561E-01
7.89229583E-01
7.48298298E-01
7.09206814E-01
6.71475727E-01
6.34811663E-01
5.99331231E-01
5.66227646E-01
5.36749660E-01
5.11803470E-01
4.91920206E-01
4.77713687E-01
4.70036461E-01
1.00000000E+00
1.00000000E+00
1.00000000E+00
1.00000000E+00
1.00000000E+00
1.00000000E+00
1.71131437E-02
8.94515144E-03
1.18910570E-02
2.27348293E-02
9.83890414E-01
9.24208816E-01
4.18311504E-01
6.52048570E-01
3.68067008E-01
9.72601293E-01
9.60005503E-01
9.47179878E-01
9.36562115E-01
9.16088288E-01
9.03075532E-01
8.84731862E-01
8.60928372E-01
8.32223526E-01
7.99924706E-01
7.64923322E-01
7.28218034E-01
6.89426149E-01
6.11205518E-01
5.68878567E-01
5.21640340E-01
3.25425697E-01
2.84996502E-01
2.45691041E-01
2.06948490E-01
1.68471778E-01
1.30186519E-01
9.21178138E-02
4.83873051E-02
5.27749554E-02
4.63720029E-01
4.50795002E-01
4.32036123E-01
4.07752623E-01
3.79697037E-01
3.46815133E-01
3.11947896E-01
2.75661995E-01
2.38519283E-01
2.00881003E-01
1.62900570E-01
1.24637061E-01
8.69507131E-02
9.03149531E-01
8.55933834E-01
8.10403619E-01
7.68650577E-01
7.29031020E-01
6.90512692E-01
6.53737317E-01
6.17069705E-01
5.82194568E-01
5.50234041E-01
5.22586388E-01
4.99645231E-01
4.82450824E-01
9.93111791E-01
9.90302634E-01
9.66188195E-01
9.87617451E-01
9.80731392E-01
4.36925790E-02
1.17110566E-02
4.69944029E-01
4.73014736E-01
9.29936010E-01
9.52263024E-01
4.67037845E-01
3.65996329E-01
3.31869567E-01
2.95456597E-01
2.58198871E-01
2.20518428E-01
1.82625359E-01
1.44877777E-01
1.07946484E-01
8.80172598E-01
8.25908470E-01
7.86575305E-01
7.47525149E-01
7.08999395E-01
6.33226694E-01
5.97386207E-01
5.62344168E-01
9.38486953E-01
9.27299019E-01
9.15966954E-01
9.00903769E-01
8.52335112E-01
6.71700695E-01
5.03956120E-01
4.49238989E-01
4.27855719E-01
3.99584712E-01
3.84537526E-01
3.43612354E-01
3.04002695E-01
2.65020122E-01
2.26435036E-01
1.88082237E-01
1.50141706E-01
1.13580294E-01
8.20225345E-01
7.85548019E-01
7.48607186E-01
7.10936767E-01
6.72741995E-01
6.33779311E-01
5.94143549E-01
5.54265295E-01
5.31231523E-01
4.84017936E-01
9.66845129E-01
8.67659880E-01
7.95992850E-02
7.49403211E-02
9.39593731E-01
9.79185099E-01
9.58797823E-01
4.83496169E-02
9.97367939E-01
2.70302529E-02
6.82800266E-02
9.34039620E-01
8.41070817E-01
5.11984328E-01
4.22099015E-01
4.67380997E-01
4.23155610E-01
3.92215516E-01
3.56246385E-01
3.18764062E-01
2.80808187E-01
2.42725066E-01
2.04611232E-01
1.66716387E-01
4.81895609E-01
6.14686091E-01
5.77389837E-01
4.53321349E-01
5.08280946E-01
5.40912089E-01
6.52555880E-01
6.90650614E-01
7.28697310E-01
7.66700800E-01
8.04415991E-01
9.18302640E-01
9.03108639E-01
8.74672330E-01
1.29792601E-01
9.04543953E-01
9.56404837E-02
9.74865598E-01
4.78833743E-01
4.48904720E-01
9.38459281E-01
9.27764053E-01
2.22427187E-02
9.81583121E-01
9.77348812E-01
9.75484905E-01
9.23284695E-01
9.20517855E-01
9.20093654E-01
4.13762775E-01
4.26319625E-01
4.22811264E-01
7.01414464E-01
7.21510993E-01
7.13081164E-01
3.87696211E-01
4.05106860E-01
3.80316841E-01
3.05952979E-02
4.12372310E-02
5.56755332E-02
8.93730422E-03
1.30104261E-17
9.41514783E-03
5.02348236E-03
1.41278340E-02
2.55181029E-02
1.77106570E-02
1.69549140E-02
5.38597654E-03
5.15973905E-03
1.05504421E-02
2.05707236E-02
3.31741743E-02
3.23294748E-02
1.61437284E-02
7.82412340E-03
5.55407764E-03
9.82312765E-01
9.89292908E-01
9.85161735E-01
9.79840616E-01
9.74703438E-01
9.55380013E-01
9.52243131E-01
9.48975943E-01
9.65118585E-01
9.68545185E-01
9.62782417E-01
9.63062681E-01
9.57962822E-01
9.54701986E-01
9.56273267E-01
9.50493325E-01
9.40696185E-01
9.44549674E-01
9.39716418E-01
9.26313387E-01
9.25297744E-01
9.25897911E-01
9.24893113E-01
9.28895678E-01
9.26386271E-01
9.19778073E-01
9.16122484E-01
9.08759337E-01
9.10483170E-01
9.04245588E-01
8.92861729E-01
8.95952491E-01
8.87292269E-01
8.71044328E-01
8.76058494E-01
8.64834870E-01
8.44259554E-01
8.50958470E-01
8.37505552E-01
8.13302257E-01
8.21412917E-01
8.06232523E-01
7.79327253E-01
7.88497189E-01
7.72054405E-01
7.43228864E-01
7.53172970E-01
7.35908821E-01
6.79453070E-01
6.58578426E-01
6.67470195E-01
6.27771764E-01
6.38320877E-01
6.19225884E-01
5.86284310E-01
5.97284786E-01
5.76768109E-01
5.41107051E-01
5.52544717E-01
5.27800306E-01
4.50465174E-01
4.60072529E-01
4.60669731E-01
3.42593889E-01
3.55982571E-01
3.35362878E-01
3.01356347E-01
3.13366826E-01
2.94099399E-01
2.61651493E-01
2.73060609E-01
2.54403791E-01
2.22707623E-01
2.33819935E-01
2.15455333E-01
1.84131244E-01
1.95085499E-01
1.76836361E-01
1.45757808E-01
1.56517112E-01
1.38290153E-01
1.07567063E-01
1.17728463E-01
9.93718066E-02
9.57572452E-02
1.16575061E-01
1.08990259E-01
3.30485031E-02
1.70512747E-02
3.29551599E-02
4.67667187E-01
4.66837208E-01
4.68221272E-01
4.63655753E-01
4.68564181E-01
4.52834975E-01
4.59774037E-01
4.59186879E-01
4.65329228E-01
4.69032433E-01
4.71338923E-01
4.36037820E-01
4.45929431E-01
4.43824669E-01
3.86733857E-01
4.01514061E-01
3.96641012E-01
3.58694806E-01
3.66514806E-01
3.74650815E-01
3.40613930E-01
3.52659159E-01
3.05079597E-01
3.24035724E-01
3.17220128E-01
2.68313419E-01
2.87761973E-01
2.80364531E-01
2.30892752E-01
2.50603157E-01
2.42879714E-01
1.93104686E-01
2.12968737E-01
2.05079843E-01
1.55194924E-01
1.75066371E-01
1.67220073E-01
1.17604523E-01
1.37166669E-01
1.29787777E-01
8.88383163E-01
8.71118001E-01
8.86771850E-01
8.62544885E-01
8.45897429E-01
8.58110256E-01
8.21242698E-01
8.36670057E-01
8.43692186E-01
7.99504851E-01
8.09774647E-01
7.59379810E-01
7.80049847E-01
7.70635377E-01
7.20390202E-01
7.40598462E-01
7.31801819E-01
6.63961464E-01
6.83326912E-01
6.75142874E-01
6.27561945E-01
6.38588531E-01
6.45984303E-01
6.08687056E-01
6.18914032E-01
5.73837567E-01
5.91645217E-01
5.82834641E-01
5.30945995E-01
5.45366126E-01
5.38335756E-01
5.06900983E-01
5.18817304E-01
5.12725151E-01
4.88131283E-01
4.97095155E-01
4.91919282E-01
4.71666077E-01
4.74079791E-01
4.75934642E-01
9.91747022E-01
9.87915799E-01
9.86221249E-01
9.95549032E-01
1.00000000E+00
9.97023250E-01
9.95286802E-01
9.98373180E-01
9.96005851E-01
9.93477072E-01
9.98971540E-01
9.99151372E-01
9.98066781E-01
1.00000000E+00
9.99534926E-01
1.03873609E-02
-7.19910243E-17
1.04083409E-17
1.43498478E-02
4.07660017E-17
4.19308316E-03
2.55871713E-17
5.07074290E-03
6.37648254E-03
1.18584560E-02
-8.67361738E-19
8.49445926E-02
9.38764982E-02
1.01776981E-01
-1.07552856E-16
9.84860535E-01
9.81787069E-01
9.70952033E-01
9.11984296E-01
9.43777939E-01
9.42985012E-01
4.36206947E-01
4.21681779E-01
3.65682176E-01
6.46563838E-01
6.05542256E-01
3.22033013E-01
3.55571109E-01
3.72471280E-01
9.58863748E-01
9.94259024E-01
9.93979155E-01
9.47031391E-01
9.91567941E-01
9.92156084E-01
9.85309465E-01
9.37038720E-01
9.35018487E-01
9.23253820E-01
9.30224065E-01
9.32590773E-01
9.32409607E-01
9.32090228E-01
9.31478188E-01
9.37391919E-01
9.32184236E-01
8.98621464E-01
9.21491522E-01
9.20369342E-01
9.15221452E-01
8.79943663E-01
8.91873104E-01
8.80906812E-01
8.88967640E-01
8.55984834E-01
9.25289444E-01
9.35744018E-01
8.27392029E-01
8.55669178E-01
7.95177574E-01
8.72670358E-01
9.03576112E-01
8.83915286E-01
7.60348625E-01
8.23826375E-01
8.48204794E-01
7.23836223E-01
7.16329442E-01
7.80535036E-01
8.02600254E-01
7.92776146E-01
7.05633513E-01
6.98650379E-01
7.40196404E-01
7.61008166E-01
7.52152095E-01
6.86642234E-01
6.82073456E-01
7.02051755E-01
6.93609303E-01
5.61659289E-01
6.27487865E-01
6.46473321E-01
5.06880697E-01
4.96888221E-01
5.92276822E-01
6.10377674E-01
6.02494192E-01
4.06512118E-01
4.00495301E-01
3.87857290E-01
5.59698797E-01
5.76269158E-01
5.68714187E-01
2.81287340E-01
3.21447387E-01
3.39592508E-01
3.32737752E-01
2.41839018E-01
2.85641612E-01
3.04560193E-01
2.97210937E-01
2.03004151E-01
2.48785674E-01
2.68178658E-01
2.60509663E-01
1.64402837E-01
2.11303451E-01
2.30981357E-01
2.23126367E-01
1.25606896E-01
1.73399649E-01
1.93286407E-01
1.85328470E-01
8.55821940E-02
7.76667653E-02
1.35097394E-01
1.55201354E-01
1.47237804E-01
6.86799574E-02
5.74804090E-02
6.09409456E-02
6.45189808E-02
5.11684528E-02
3.37285545E-02
7.54336268E-02
8.76050266E-02
3.52286738E-02
3.70571717E-02
3.39133441E-02
2.59952442E-02
4.60828128E-01
5.23465318E-01
5.22043475E-01
5.35494606E-01
4.67789623E-01
4.76236758E-01
4.77601476E-01
4.49001863E-01
4.30383705E-01
4.42084012E-01
4.41110167E-01
4.31335632E-01
4.12761473E-01
4.16650928E-01
4.26198114E-01
4.08234696E-01
3.80603932E-01
3.86483066E-01
3.96048075E-01
3.80480952E-01
3.61800950E-01
3.74740109E-01
3.48762982E-01
3.25804971E-01
3.45339330E-01
3.37808927E-01
3.14362912E-01
2.88573175E-01
3.08496477E-01
3.00051888E-01
2.78373395E-01
2.50860325E-01
2.70916697E-01
2.62016315E-01
2.41410303E-01
2.12935599E-01
2.33040655E-01
2.23913080E-01
2.03855997E-01
1.75020882E-01
1.95048447E-01
1.85905445E-01
1.65869776E-01
1.37651745E-01
1.57267508E-01
1.48467226E-01
1.27238911E-01
8.15533571E-02
7.23697142E-02
7.08050854E-02
9.39262346E-01
9.44557806E-01
9.60041160E-01
9.75527307E-01
9.56833382E-01
8.23419022E-01
8.28425793E-01
8.12972089E-01
8.63994338E-01
7.99841734E-01
7.94620458E-01
8.15505171E-01
7.75013549E-01
7.63544658E-01
7.57160935E-01
7.72690289E-01
7.37402937E-01
7.26140404E-01
7.19390526E-01
7.32599803E-01
6.61239572E-01
6.49632908E-01
6.42888994E-01
6.94056884E-01
6.22433101E-01
6.33195543E-01
6.56805046E-01
6.09900723E-01
6.02735817E-01
6.20556644E-01
5.85519695E-01
5.70139540E-01
5.64412626E-01
5.85914159E-01
5.41952551E-01
5.57954930E-01
5.49073323E-01
5.54152160E-01
4.75796900E-01
4.84247801E-01
5.26421528E-01
4.92740824E-01
5.03196471E-01
4.95505329E-01
5.03439142E-01
4.78302138E-01
4.76655116E-01
4.81159504E-01
4.85770362E-01
9.90601980E-01
9.89876622E-01
1.00000000E+00
9.95501435E-01
1.00000000E+00
9.85754379E-01
9.88959442E-01
1.00000000E+00
9.77404354E-01
9.72249284E-01
9.70620609E-01
1.00000000E+00
9.67209772E-01
9.76296284E-01
4.77055703E-02
6.26404018E-02
8.11022777E-02
-2.47874041E-17
1.88060950E-02
4.88952661E-01
4.69339430E-01
4.41355124E-01
9.29914346E-01
9.28970891E-01
9.24881890E-01
9.46285321E-01
9.38661130E-01
4.96271700E-01
4.95820239E-01
5.06991857E-01
3.89604401E-01
4.04212144E-01
3.49177274E-01
3.31099051E-01
3.10366190E-01
2.92439558E-01
2.71762504E-01
2.53962376E-01
2.33351199E-01
2.15639801E-01
1.95087057E-01
1.77541874E-01
1.57195932E-01
1.40181483E-01
1.12760039E-01
1.20615304E-01
1.05105706E-01
9.31661189E-02
8.78068613E-02
1.00103373E-01
8.68050471E-01
8.55488643E-01
8.39773632E-01
8.63860228E-01
8.86901766E-01
7.85342245E-01
7.47479894E-01
6.99439458E-01
7.09424967E-01
6.81312387E-01
6.71403883E-01
6.55943773E-01
6.63293842E-01
5.96236119E-01
5.59157053E-01
5.47600723E-01
5.29473738E-01
5.35428490E-01
5.15378382E-01
9.01094520E-01
9.07949075E-01
9.07543146E-01
9.27560371E-01
9.21559466E-01
9.21797796E-01
9.15488742E-01
9.03718396E-01
9.49538866E-01
9.48406506E-01
8.64280498E-01
8.33266482E-01
8.25034981E-01
6.88101777E-01
5.15644424E-01
5.19667594E-01
5.27631547E-01
4.51151694E-01
4.59786307E-01
4.61892170E-01
4.40987219E-01
4.20279589E-01
4.19349473E-01
3.96329810E-01
3.74572824E-01
3.59966539E-01
3.54416723E-01
3.32751584E-01
3.19868317E-01
3.13476510E-01
2.92544829E-01
2.80627564E-01
2.73829276E-01
2.53313181E-01
2.41885692E-01
2.34900245E-01
2.14603284E-01
2.03440012E-01
1.96345170E-01
1.76166395E-01
1.65316191E-01
1.58117163E-01
1.38057282E-01
1.28107697E-01
1.20608485E-01
1.00748527E-01
8.44819861E-02
8.07648355E-01
7.91567963E-01
7.72804397E-01
7.55614379E-01
7.36078772E-01
7.18284305E-01
6.98063553E-01
6.80072412E-01
6.59975704E-01
6.41427836E-01
6.20143684E-01
6.01059154E-01
5.79108508E-01
5.59379365E-01
5.27380170E-01
5.09730590E-01
5.52278305E-01
5.70680216E-01
4.83870719E-01
9.69084343E-01
9.62642994E-01
8.51133265E-01
9.04429315E-01
9.27987218E-01
9.20566422E-01
6.09949993E-02
9.48679378E-01
9.61585397E-01
9.70605275E-01
9.77105212E-01
5.84310639E-02
4.72254925E-02
5.56614471E-02
1.00000000E+00
9.96737697E-01
1.50366931E-02
3.44679208E-02
7.30843424E-02
9.11732351E-01
9.35134955E-01
8.35448619E-01
4.88700947E-01
4.94244291E-01
4.94198533E-01
4.66348388E-01
4.70655559E-01
4.80955385E-01
4.64406396E-01
4.74033157E-01
4.58865017E-01
4.08722285E-01
4.22525516E-01
4.40241622E-01
3.69898277E-01
4.51027509E-01
6.07326324E-01
6.25940279E-01
6.42919985E-01
5.87968420E-01
4.41527407E-01
6.63491085E-01
6.80887317E-01
7.01240367E-01
7.18781420E-01
7.39485158E-01
7.57111457E-01
7.77931591E-01
7.95194187E-01
8.14872289E-01
9.16805549E-01
9.08203083E-01
9.00845087E-01
8.88698493E-01
8.87875990E-01
8.76989365E-01
1.20449577E-01
9.81623282E-01
4.36187045E-01
4.34895593E-01
9.33741780E-01
