# vtk DataFile Version 1.0
ECM-CELL DIFFUSION-MECHANICS
ASCII

DATASET UNSTRUCTURED_GRID
POINTS      732 float
1.50000000E+01  3.00000000E+01 0.00000000E+00
-5.00000000E+00  3.00000000E+01 0.00000000E+00
-5.00000000E+00  0.00000000E+00 0.00000000E+00
-2.50000000E+01  0.00000000E+00 0.00000000E+00
-2.69134180E+01  -9.61939810E+00 0.00000000E+00
-2.85355340E+01  -8.53553390E+00 0.00000000E+00
-2.96193980E+01  -6.91341730E+00 0.00000000E+00
-3.00000000E+01  -5.00000000E+00 0.00000000E+00
-2.96193980E+01  -3.08658290E+00 0.00000000E+00
-2.85355340E+01  -1.46446610E+00 0.00000000E+00
-2.69134180E+01  -3.80602330E-01 0.00000000E+00
-2.50000000E+01  -1.00000000E+01 0.00000000E+00
5.00000000E+00  -1.00000000E+01 0.00000000E+00
5.00000000E+00  2.00000000E+01 0.00000000E+00
1.30000000E+01  3.00000000E+01 0.00000000E+00
1.10000000E+01  3.00000000E+01 0.00000000E+00
9.00000000E+00  3.00000000E+01 0.00000000E+00
7.00000000E+00  3.00000000E+01 0.00000000E+00
5.00000000E+00  3.00000000E+01 0.00000000E+00
3.00000000E+00  3.00000000E+01 0.00000000E+00
1.00000000E+00  3.00000000E+01 0.00000000E+00
-1.00000000E+00  3.00000000E+01 0.00000000E+00
-3.00000000E+00  3.00000000E+01 0.00000000E+00
-5.00000000E+00  2.80000000E+01 0.00000000E+00
-5.00000000E+00  2.60000000E+01 0.00000000E+00
-5.00000000E+00  2.40000000E+01 0.00000000E+00
-5.00000000E+00  2.20000000E+01 0.00000000E+00
-5.00000000E+00  2.00000000E+01 0.00000000E+00
-5.00000000E+00  1.80000000E+01 0.00000000E+00
-5.00000000E+00  1.60000000E+01 0.00000000E+00
-5.00000000E+00  1.40000000E+01 0.00000000E+00
-5.00000000E+00  1.20000000E+01 0.00000000E+00
-5.00000000E+00  1.00000000E+01 0.00000000E+00
-5.00000000E+00  8.00000000E+00 0.00000000E+00
-5.00000000E+00  6.00000000E+00 0.00000000E+00
-5.00000000E+00  4.00000000E+00 0.00000000E+00
-5.00000000E+00  2.00000000E+00 0.00000000E+00
-7.00000000E+00  0.00000000E+00 0.00000000E+00
-9.00000000E+00  0.00000000E+00 0.00000000E+00
-1.10000000E+01  0.00000000E+00 0.00000000E+00
-1.30000000E+01  0.00000000E+00 0.00000000E+00
-1.50000000E+01  0.00000000E+00 0.00000000E+00
-1.70000000E+01  0.00000000E+00 0.00000000E+00
-1.90000000E+01  0.00000000E+00 0.00000000E+00
-2.10000000E+01  0.00000000E+00 0.00000000E+00
-2.30000000E+01  0.00000000E+00 0.00000000E+00
3.00000000E+00  -1.00000000E+01 0.00000000E+00
1.00000000E+00  -1.00000000E+01 0.00000000E+00
-1.00000000E+00  -1.00000000E+01 0.00000000E+00
-3.00000000E+00  -1.00000000E+01 0.00000000E+00
-5.00000000E+00  -1.00000000E+01 0.00000000E+00
-7.00000000E+00  -1.00000000E+01 0.00000000E+00
-9.00000000E+00  -1.00000000E+01 0.00000000E+00
-1.10000000E+01  -1.00000000E+01 0.00000000E+00
-1.30000000E+01  -1.00000000E+01 0.00000000E+00
-1.50000000E+01  -1.00000000E+01 0.00000000E+00
-1.70000000E+01  -1.00000000E+01 0.00000000E+00
-1.90000000E+01  -1.00000000E+01 0.00000000E+00
-2.10000000E+01  -1.00000000E+01 0.00000000E+00
-2.30000000E+01  -1.00000000E+01 0.00000000E+00
5.00000000E+00  1.80000000E+01 0.00000000E+00
5.00000000E+00  1.60000000E+01 0.00000000E+00
5.00000000E+00  1.40000000E+01 0.00000000E+00
5.00000000E+00  1.20000000E+01 0.00000000E+00
5.00000000E+00  1.00000000E+01 0.00000000E+00
5.00000000E+00  8.00000000E+00 0.00000000E+00
5.00000000E+00  6.00000000E+00 0.00000000E+00
5.00000000E+00  4.00000000E+00 0.00000000E+00
5.00000000E+00  2.00000000E+00 0.00000000E+00
5.00000000E+00  0.00000000E+00 0.00000000E+00
5.00000000E+00  -2.00000000E+00 0.00000000E+00
5.00000000E+00  -4.00000000E+00 0.00000000E+00
5.00000000E+00  -6.00000000E+00 0.00000000E+00
5.00000000E+00  -8.00000000E+00 0.00000000E+00
6.42857120E+00  2.14285720E+01 0.00000000E+00
7.85714290E+00  2.28571430E+01 0.00000000E+00
9.28571420E+00  2.42857150E+01 0.00000000E+00
1.07142860E+01  2.57142850E+01 0.00000000E+00
1.21428580E+01  2.71428570E+01 0.00000000E+00
1.35714280E+01  2.85714280E+01 0.00000000E+00
-2.55692160E+01  -7.47994950E+00 0.00000000E+00
-2.68123990E+01  -6.65812350E+00 0.00000000E+00
-2.78370070E+01  -5.65078540E+00 0.00000000E+00
-2.49931680E+01  -2.99975060E+00 0.00000000E+00
-6.07402320E+00  -2.51799890E+00 0.00000000E+00
-3.41205380E+00  6.06536290E+00 0.00000000E+00
-7.90601020E+00  -2.16468500E+00 0.00000000E+00
6.93360620E+00  2.85683230E+01 0.00000000E+00
5.03122280E+00  2.85983680E+01 0.00000000E+00
3.07519960E+00  2.83579220E+01 0.00000000E+00
1.02007830E+00  2.82704350E+01 0.00000000E+00
-1.00747930E+00  2.81540110E+01 0.00000000E+00
-2.98253320E+00  2.20530070E+01 0.00000000E+00
-3.14535070E+00  1.99964410E+01 0.00000000E+00
-3.38007400E+00  1.80213890E+01 0.00000000E+00
-3.24730750E+00  1.60810070E+01 0.00000000E+00
-3.22061010E+00  1.40090930E+01 0.00000000E+00
-3.27037720E+00  1.19557340E+01 0.00000000E+00
-3.32515500E+00  9.95609380E+00 0.00000000E+00
-3.37583540E+00  7.99501370E+00 0.00000000E+00
-3.38906220E+00  4.20707270E+00 0.00000000E+00
-3.21241690E+00  2.45526030E+00 0.00000000E+00
-2.81301450E+00  1.00452260E+00 0.00000000E+00
-9.85906700E+00  -1.94350760E+00 0.00000000E+00
-1.18253520E+01  -1.81189600E+00 0.00000000E+00
-1.37737040E+01  -1.72045150E+00 0.00000000E+00
-1.56994910E+01  -1.64893780E+00 0.00000000E+00
-1.76126290E+01  -1.59551540E+00 0.00000000E+00
-1.95252950E+01  -1.56757510E+00 0.00000000E+00
-2.14428200E+01  -1.57937250E+00 0.00000000E+00
-2.40465410E+01  -7.98487000E+00 0.00000000E+00
-2.32975660E+01  -1.60528280E+00 0.00000000E+00
-8.58305330E-01  -8.21509270E+00 0.00000000E+00
-2.85219840E+00  -8.24649330E+00 0.00000000E+00
-4.86234470E+00  -8.28040030E+00 0.00000000E+00
-6.82275490E+00  -8.35858630E+00 0.00000000E+00
-8.72553920E+00  -8.46272760E+00 0.00000000E+00
-1.06668940E+01  -8.49340250E+00 0.00000000E+00
-1.26085230E+01  -8.47250460E+00 0.00000000E+00
-1.45571990E+01  -8.43932820E+00 0.00000000E+00
-1.65147130E+01  -8.41329860E+00 0.00000000E+00
-1.84622020E+01  -8.38815500E+00 0.00000000E+00
-2.03904630E+01  -8.34011360E+00 0.00000000E+00
-2.22757700E+01  -8.22864630E+00 0.00000000E+00
3.32341840E+00  1.79214500E+01 0.00000000E+00
3.49274990E+00  1.58118630E+01 0.00000000E+00
3.45036290E+00  1.38697480E+01 0.00000000E+00
3.40310290E+00  1.19041440E+01 0.00000000E+00
3.36840960E+00  9.92752460E+00 0.00000000E+00
3.33398680E+00  7.94917820E+00 0.00000000E+00
3.27319620E+00  5.98151020E+00 0.00000000E+00
3.14357090E+00  4.00265220E+00 0.00000000E+00
2.93195250E+00  2.00336670E+00 0.00000000E+00
2.85718200E+00  -7.79486520E-02 0.00000000E+00
2.96486330E+00  -2.16540530E+00 0.00000000E+00
3.04931950E+00  -4.18990900E+00 0.00000000E+00
3.07869510E+00  -6.14942600E+00 0.00000000E+00
3.06127830E+00  -8.08621220E+00 0.00000000E+00
8.87478540E+00  2.87956100E+01 0.00000000E+00
1.06500640E+01  2.90019720E+01 0.00000000E+00
9.73117540E+00  2.65182460E+01 0.00000000E+00
4.64431380E+00  2.23340870E+01 0.00000000E+00
8.02427670E+00  2.53785690E+01 0.00000000E+00
6.40424110E+00  2.39808600E+01 0.00000000E+00
-2.30793720E+01  -6.28166200E+00 0.00000000E+00
-2.65148950E+01  -3.90364410E+00 0.00000000E+00
-3.43422220E+00  -1.27146480E+00 0.00000000E+00
1.04067840E+00  2.66475810E+01 0.00000000E+00
1.10761570E+00  -8.16181090E+00 0.00000000E+00
-7.36092030E-01  -6.43063930E+00 0.00000000E+00
-4.75875710E+00  -6.53175260E+00 0.00000000E+00
-6.72676090E+00  -6.65011880E+00 0.00000000E+00
-8.50626940E+00  -6.96918010E+00 0.00000000E+00
-1.03056270E+01  -7.00035810E+00 0.00000000E+00
-1.21338000E+01  -6.91552500E+00 0.00000000E+00
-1.40198870E+01  -6.83708530E+00 0.00000000E+00
-1.59333120E+01  -6.77759310E+00 0.00000000E+00
-1.20785130E+00  1.97240960E+01 0.00000000E+00
-1.32478480E+00  1.64232350E+01 0.00000000E+00
1.96661810E+00  1.56013530E+01 0.00000000E+00
1.83737340E+00  1.38039750E+01 0.00000000E+00
1.66680230E+00  7.95078230E+00 0.00000000E+00
1.58930700E+00  6.05578280E+00 0.00000000E+00
1.41368440E+00  4.18972210E+00 0.00000000E+00
-2.88116500E+00  2.41189420E+01 0.00000000E+00
-1.05743060E+00  2.20182400E+01 0.00000000E+00
-2.06459260E+00  1.80287820E+01 0.00000000E+00
1.76209580E+00  1.18621570E+01 0.00000000E+00
1.71383550E+00  9.90428640E+00 0.00000000E+00
-1.96961380E+01  -6.65574450E+00 0.00000000E+00
1.10382270E+00  -2.44856600E+00 0.00000000E+00
-2.71728680E+00  -6.50229880E+00 0.00000000E+00
-6.94966460E+00  -4.68074230E+00 0.00000000E+00
-8.87774660E+00  -3.94481040E+00 0.00000000E+00
-1.07458330E+01  -3.67898370E+00 0.00000000E+00
-1.26495610E+01  -3.53031300E+00 0.00000000E+00
-1.45555060E+01  -3.42598990E+00 0.00000000E+00
-1.64351330E+01  -3.33984760E+00 0.00000000E+00
-1.82789100E+01  -3.26375910E+00 0.00000000E+00
-1.78273370E+01  -6.72471860E+00 0.00000000E+00
-2.00785790E+01  -3.19971040E+00 0.00000000E+00
-1.49681840E+00  1.40206600E+01 0.00000000E+00
-1.58211720E+00  1.19191850E+01 0.00000000E+00
-1.64738950E+00  9.92495730E+00 0.00000000E+00
-1.70833540E+00  7.99023060E+00 0.00000000E+00
-1.75975440E+00  6.13986830E+00 0.00000000E+00
-1.75903370E+00  4.42714830E+00 0.00000000E+00
-1.57233490E+00  2.89093950E+00 0.00000000E+00
8.35785090E-01  2.16724940E+00 0.00000000E+00
6.82180050E-01  -2.41043480E-01 0.00000000E+00
1.19283760E+00  -4.42227750E+00 0.00000000E+00
5.08530000E+00  2.73792100E+01 0.00000000E+00
3.36510830E+00  2.64843390E+01 0.00000000E+00
2.03854510E+00  1.69918710E+01 0.00000000E+00
-2.18747600E+01  -3.21142750E+00 0.00000000E+00
-2.14750770E+01  -6.53344300E+00 0.00000000E+00
3.87977890E+00  2.02254430E+01 0.00000000E+00
6.80135920E+00  2.67542230E+01 0.00000000E+00
3.63350840E+00  2.38850380E+01 0.00000000E+00
-2.38274770E+01  -3.46659900E+00 0.00000000E+00
1.18041360E+00  -6.30371430E+00 0.00000000E+00
-9.38736620E-01  2.63029140E+01 0.00000000E+00
1.22929610E+01  2.88663250E+01 0.00000000E+00
-2.54329400E+01  -4.97643760E+00 0.00000000E+00
-2.34656640E+01  -4.58569380E+00 0.00000000E+00
2.50105620E+00  2.18994750E+01 0.00000000E+00
1.02533670E+00  1.74530890E+01 0.00000000E+00
-2.03710100E+00  -2.63990820E-01 0.00000000E+00
-2.58995530E+00  -4.80094000E+00 0.00000000E+00
-8.48027420E+00  -5.76261620E+00 0.00000000E+00
[...]
POINT_DATA      732
SCALARS Ux float
LOOKUP_TABLE default
1.00000000E+00
9.21502312E-01
4.63143427E-01
6.24500451E-17
-3.38271078E-17
-1.04083409E-17
-1.90819582E-17
8.23993651E-18
1.57209315E-18
-1.31188463E-17
-1.04083409E-17
-5.20417043E-17
4.63442084E-01
1.00000000E+00
9.98438482E-01
9.93735739E-01
9.86014451E-01
9.75620549E-01
9.63378919E-01
9.50604834E-01
9.38850208E-01
9.29504118E-01
9.23543961E-01
9.19434464E-01
9.13082841E-01
9.02052702E-01
8.85891410E-01
8.64402738E-01
8.37934216E-01
8.07379448E-01
7.73856702E-01
7.38339570E-01
7.01467363E-01
6.63468520E-01
6.24227034E-01
5.82443617E-01
5.37206608E-01
3.89438136E-01
3.44186715E-01
3.02155468E-01
2.62502127E-01
2.23728908E-01
1.85388358E-01
1.47176452E-01
1.08121395E-01
6.77825942E-02
4.60492412E-01
4.51650816E-01
4.36980209E-01
4.16710958E-01
3.91373323E-01
3.61838451E-01
3.29176183E-01
2.94411604E-01
2.58342853E-01
2.21505640E-01
1.84172498E-01
1.46496813E-01
1.07594330E-01
6.77603970E-02
8.81725734E-01
8.30976213E-01
7.86212632E-01
7.45845788E-01
7.07021779E-01
6.69410165E-01
6.32925690E-01
5.97941110E-01
5.65161491E-01
5.35561818E-01
5.10192308E-01
4.89909961E-01
4.75234560E-01
4.66391830E-01
1.00000000E+00
1.00000000E+00
1.00000000E+00
1.00000000E+00
1.00000000E+00
1.00000000E+00
3.15244940E-02
2.07170747E-02
1.38399680E-02
4.08108536E-02
4.01396807E-01
6.26141366E-01
3.64122662E-01
9.75720982E-01
9.63725434E-01
9.50740185E-01
9.38028348E-01
9.28004307E-01
8.89157101E-01
8.66536568E-01
8.39590724E-01
8.09825922E-01
7.74778049E-01
7.38021278E-01
7.01013532E-01
6.63779678E-01
5.88347114E-01
5.51614626E-01
5.21645255E-01
3.24332701E-01
2.85096101E-01
2.47176832E-01
2.10193006E-01
1.73684115E-01
1.37274279E-01
1.00249064E-01
5.19693526E-02
6.46326224E-02
4.40465374E-01
4.20381628E-01
3.94858714E-01
3.65687759E-01
3.34456103E-01
3.00703053E-01
2.65718147E-01
2.29860153E-01
1.93390199E-01
1.56825580E-01
1.20238139E-01
8.44653013E-02
8.71205158E-01
8.24228634E-01
7.82683338E-01
7.43437595E-01
7.05279540E-01
6.68089668E-01
6.32052823E-01
5.97058242E-01
5.63522683E-01
5.32007035E-01
5.05614302E-01
4.85565383E-01
4.71664543E-01
4.63371120E-01
9.85926701E-01
9.92977184E-01
9.93688680E-01
9.64767417E-01
9.88282869E-01
9.81500765E-01
7.28877511E-02
2.53274561E-02
4.68100399E-01
9.35507205E-01
4.54750631E-01
4.48399134E-01
4.01285723E-01
3.70650573E-01
3.40084579E-01
3.08323752E-01
2.75152517E-01
2.40297902E-01
2.04593335E-01
8.70249764E-01
8.19453546E-01
8.15126446E-01
7.79056542E-01
6.67072071E-01
6.31940185E-01
5.97930141E-01
9.05731843E-01
8.96936979E-01
8.42821853E-01
7.41230384E-01
7.03835570E-01
1.34154186E-01
4.94952446E-01
4.28000120E-01
3.73773285E-01
3.40007297E-01
3.04414498E-01
2.67971830E-01
2.31621146E-01
1.95936472E-01
1.61069920E-01
1.69106518E-01
1.27238295E-01
7.77086513E-01
7.38651506E-01
7.01441074E-01
6.64813493E-01
6.29270763E-01
5.95904530E-01
5.66067891E-01
5.61224527E-01
5.21842047E-01
4.75851176E-01
9.64481455E-01
9.51690451E-01
8.43806899E-01
9.40023661E-02
1.01268732E-01
9.38517523E-01
9.76954262E-01
9.51621768E-01
6.02518623E-02
4.62752830E-01
9.23713941E-01
9.97632255E-01
3.92370232E-02
6.77597870E-02
9.29739267E-01
8.47312678E-01
5.02893432E-01
4.39821052E-01
3.42921567E-01
3.20260114E-01
2.88041143E-01
2.53133093E-01
6.00399985E-01
4.11779907E-01
4.77313885E-01
2.17535569E-01
6.31742343E-01
4.93102900E-01
5.43754995E-01
6.66302633E-01
7.39784040E-01
7.02738724E-01
7.77730204E-01
8.14475299E-01
8.90286903E-01
8.53343398E-01
1.82305524E-01
1.48042918E-01
9.16335562E-01
8.78140009E-01
8.80086275E-02
9.66170619E-01
4.60824119E-01
4.71771114E-01
9.08902683E-01
9.35115469E-01
4.31894524E-01
4.55582352E-01
9.15938267E-01
5.25483529E-02
9.96536268E-01
9.21666666E-01
8.29094413E-03
8.91777000E-03
1.72700407E-02
3.36803374E-02
1.02221383E-02
9.88078387E-01
9.10881461E-01
9.93093189E-01
5.24115975E-01
9.40301427E-01
1.15982747E-01
8.74548649E-01
9.31426648E-01
9.24862268E-01
5.76300253E-01
9.91305740E-01
9.90813613E-01
9.83038357E-01
9.82430754E-01
9.29127001E-01
9.32625146E-01
9.38673886E-01
9.33804625E-01
4.18045495E-01
4.08226536E-01
3.92715712E-01
4.04628324E-01
7.06244471E-01
6.86567616E-01
6.68838318E-01
6.88079501E-01
3.78259270E-01
3.84072968E-01
4.25261071E-01
4.21032508E-01
3.31199988E-02
3.99661344E-02
7.47511516E-02
6.66459792E-02
-1.47450673E-17
1.42429003E-02
2.57362495E-02
9.61180249E-03
9.70954288E-02
1.10497095E-01
1.32186635E-01
1.18846838E-01
3.03676601E-18
6.40156492E-03
1.11143089E-02
3.84227032E-03
6.27260254E-02
4.25777546E-02
3.94321654E-02
6.32992843E-02
2.23773674E-02
3.27315331E-02
3.80466417E-02
2.35061195E-02
9.75547603E-01
9.69657792E-01
9.63510435E-01
9.69877432E-01
9.81110935E-01
9.76134762E-01
9.86847441E-01
9.50750019E-01
9.44502942E-01
9.44163856E-01
9.58355520E-01
9.64056622E-01
9.57233072E-01
9.51249188E-01
9.23077572E-01
9.24356100E-01
9.26061295E-01
9.20990884E-01
9.20030385E-01
9.22018407E-01
8.94630357E-01
8.86820423E-01
8.98175124E-01
9.03169965E-01
9.37011342E-01
9.43158520E-01
9.19299155E-01
9.11444046E-01
9.10182802E-01
9.20553661E-01
8.78563808E-01
8.75801115E-01
8.64920051E-01
8.53630255E-01
8.51745176E-01
8.38422213E-01
8.25137185E-01
8.23093776E-01
8.08314455E-01
7.92628156E-01
7.90921860E-01
7.74130869E-01
7.56592398E-01
7.56302279E-01
7.38065787E-01
7.19645974E-01
7.20052146E-01
7.01150177E-01
6.45116135E-01
6.63540803E-01
6.44045954E-01
6.24989139E-01
6.07466180E-01
6.03769648E-01
5.85363049E-01
5.70240681E-01
5.60666481E-01
5.42635152E-01
5.35269160E-01
5.05778985E-01
4.98663897E-01
4.53969139E-01
4.51116353E-01
4.33314207E-01
4.38934197E-01
3.34217657E-01
3.44025583E-01
3.66042089E-01
2.93737185E-01
3.04577313E-01
3.22738740E-01
2.54867707E-01
2.66046522E-01
2.82172342E-01
2.16973681E-01
2.28640190E-01
2.43034173E-01
1.79549368E-01
1.91922070E-01
2.04526562E-01
1.42106906E-01
1.55489435E-01
1.66310279E-01
1.04357794E-01
1.27784340E-01
1.14100912E-01
1.27287666E-01
1.51583007E-01
1.38560828E-01
1.73462263E-02
3.02108030E-02
3.21861257E-02
1.99342963E-02
4.62704678E-01
4.64179713E-01
4.65573703E-01
4.61256841E-01
4.59765094E-01
4.52581956E-01
4.56805880E-01
4.84637911E-01
4.81354434E-01
4.94869416E-01
5.00926554E-01
4.38157058E-01
4.31111199E-01
4.27518272E-01
3.80715272E-01
3.63493206E-01
3.77069762E-01
3.97620014E-01
3.86446310E-01
3.67866506E-01
3.37105877E-01
3.50361859E-01
3.55572244E-01
3.24353231E-01
3.04403126E-01
3.17778551E-01
2.91839361E-01
2.70362271E-01
2.83331764E-01
2.57783562E-01
2.35035035E-01
2.47860449E-01
2.22474385E-01
1.98969811E-01
2.11668185E-01
8.99330495E-01
8.82948310E-01
8.76303306E-01
8.95016418E-01
8.62023092E-01
8.45585632E-01
8.57009267E-01
8.76238079E-01
8.31537928E-01
8.36174025E-01
8.62332739E-01
8.56720065E-01
7.96960486E-01
8.14902726E-01
7.96097388E-01
7.78426698E-01
7.81015943E-01
8.03067874E-01
8.19736803E-01
7.44721527E-01
7.24219382E-01
7.26261015E-01
6.49935238E-01
6.32620089E-01
6.51008114E-01
6.67649775E-01
6.49427750E-01
6.32091859E-01
6.14833525E-01
5.97631363E-01
6.14359225E-01
5.34411986E-01
5.18140439E-01
5.08586062E-01
5.22291827E-01
4.88414534E-01
4.99378943E-01
4.77909825E-01
4.74124856E-01
4.81854175E-01
4.66824223E-01
4.70078940E-01
9.85846738E-01
9.81107203E-01
9.89739256E-01
9.93273515E-01
9.90239298E-01
9.97953243E-01
9.98963615E-01
1.00000000E+00
9.99604338E-01
9.96471721E-01
9.95556812E-01
4.23436457E-03
1.26935724E-02
8.40346498E-03
-3.09792557E-21
-1.90778804E-17
-2.68851410E-17
9.55040853E-03
1.71651662E-02
6.39650041E-02
8.24684457E-02
8.87637975E-02
2.12819774E-02
6.91311912E-18
3.31657236E-01
3.45835682E-01
9.56954323E-01
9.94167728E-01
1.00000000E+00
9.96869366E-01
9.85384173E-01
9.90526849E-01
1.00000000E+00
9.59647848E-01
9.58344485E-01
9.46543633E-01
9.45387359E-01
9.07631286E-01
8.92307868E-01
9.16816164E-01
9.13911390E-01
9.19322830E-01
8.67779184E-01
8.84649412E-01
8.50525002E-01
8.16983584E-01
8.30694721E-01
8.80758148E-01
8.47358833E-01
8.27311077E-01
8.54233097E-01
7.84801395E-01
8.07835995E-01
7.62833002E-01
7.65753573E-01
6.82514939E-01
6.82611294E-01
7.60031810E-01
7.42407626E-01
7.39183975E-01
7.20122268E-01
7.02065074E-01
7.21264467E-01
5.97723654E-01
6.15204632E-01
5.79989082E-01
5.64758377E-01
5.81212134E-01
4.66358409E-01
4.18336067E-01
4.49241224E-01
5.47268701E-01
5.49893930E-01
2.97462175E-01
3.12003840E-01
2.61973449E-01
2.76503382E-01
2.25645398E-01
2.39998521E-01
1.88767996E-01
2.02893479E-01
1.75146349E-01
1.65385633E-01
1.02460227E-01
1.27251506E-01
1.17594363E-01
9.31982010E-02
4.06717015E-02
4.68444059E-02
6.23718454E-02
7.66817995E-02
8.80493820E-02
4.94910414E-02
5.06055220E-02
4.45033584E-01
4.48313378E-01
4.82949439E-01
4.97531967E-01
4.85899100E-01
4.70129832E-01
4.23649052E-01
4.43836494E-01
4.26626577E-01
4.47046285E-01
4.44897921E-01
4.20922435E-01
3.93330936E-01
3.71908184E-01
4.05988605E-01
3.31714285E-01
3.14138620E-01
3.41433800E-01
3.04230104E-01
2.81502302E-01
2.70619888E-01
2.46662724E-01
2.24554088E-01
2.13760885E-01
1.89111551E-01
1.99914187E-01
1.78484511E-01
1.54563188E-01
1.65142263E-01
1.86856283E-01
1.62967500E-01
1.44123560E-01
1.67369733E-01
8.07619304E-02
7.76311645E-02
6.03177738E-02
9.20743543E-01
9.63482222E-01
9.07892821E-01
9.59344800E-01
1.00000000E+00
9.83416985E-01
7.77347114E-01
7.98576587E-01
7.57999006E-01
7.58771201E-01
6.83191609E-01
6.65536192E-01
6.84518189E-01
6.64228746E-01
7.01161959E-01
6.47114326E-01
6.30487565E-01
6.49012745E-01
6.12644201E-01
5.98162066E-01
6.16051877E-01
5.80962315E-01
5.71304297E-01
5.88345496E-01
5.79486727E-01
5.62723318E-01
5.53030541E-01
5.68502159E-01
5.54837680E-01
4.63208943E-01
4.67245980E-01
4.84616128E-01
4.68398795E-01
4.69031837E-01
4.86809425E-01
4.68620012E-01
4.67880672E-01
4.58105536E-01
1.00000000E+00
9.98339025E-01
9.95240785E-01
9.97045920E-01
9.92960751E-01
9.94849142E-01
1.00000000E+00
9.75338817E-01
9.70755382E-01
8.70186117E-02
5.10811151E-01
3.86513695E-01
9.26263611E-01
9.29223497E-01
8.63691750E-01
4.56273600E-01
4.15345920E-01
3.51685120E-01
3.57152427E-01
3.14271152E-01
3.22275565E-01
2.76504239E-01
2.86181000E-01
2.39390329E-01
2.49774967E-01
2.03055957E-01
8.40984870E-01
8.14244882E-01
7.75792609E-01
7.38252530E-01
8.29416090E-01
7.04623449E-01
6.85385947E-01
6.27605162E-01
5.92056859E-01
5.58938770E-01
9.08179998E-01
9.23911639E-01
9.19881106E-01
9.33066617E-01
9.35509272E-01
7.22458989E-01
1.51603568E-01
9.11179264E-02
6.42959563E-02
5.27668865E-01
5.07446001E-01
3.29890178E-01
3.58035775E-01
2.96119417E-01
2.60498814E-01
2.35344267E-01
1.75707839E-01
1.41147786E-01
2.11039516E-01
1.01792420E-01
1.21643704E-01
5.33427050E-01
5.14053197E-01
5.08214729E-01
5.23046366E-01
5.40862567E-01
5.99211352E-01
9.72192647E-01
9.29542047E-01
9.43850300E-01
9.21869942E-01
1.08767022E-01
9.47104469E-01
9.57086806E-01
9.32830700E-01
9.73257268E-01
4.58423940E-02
1.00000000E+00
9.17628703E-01
9.18179648E-01
9.20930642E-01
5.33854959E-01
6.31878403E-01
6.66716813E-01
7.03310831E-01
7.40534723E-01
9.00481749E-01
9.02146218E-01
8.79405790E-01
1.31928703E-01
9.33655609E-01
-2.38524478E-18
4.66427584E-03
9.90530869E-03
-0.00000000E+00
9.90772474E-01
