# vtk DataFile Version 1.0
ECM-CELL DIFFUSION-MECHANICS
ASCII

DATASET UNSTRUCTURED_GRID
POINTS     4526 float
-5.00000000E+00  0.00000000E+00 3.00000000E+00
-5.00000000E+00  3.00000000E+01 3.00000000E+00
-5.00000000E+00  3.00000000E+01 0.00000000E+00
-5.00000000E+00  0.00000000E+00 0.00000000E+00
1.50000000E+01  3.00000000E+01 3.00000000E+00
1.50000000E+01  3.00000000E+01 0.00000000E+00
-2.50000000E+01  -1.00000000E+01 3.00000000E+00
-2.50000000E+01  0.00000000E+00 3.00000000E+00
-2.50000000E+01  0.00000000E+00 0.00000000E+00
-2.50000000E+01  -1.00000000E+01 0.00000000E+00
5.00000000E+00  2.00000000E+01 3.00000000E+00
5.00000000E+00  2.00000000E+01 0.00000000E+00
5.00000000E+00  -1.00000000E+01 0.00000000E+00
5.00000000E+00  -1.00000000E+01 3.00000000E+00
-5.00000000E+00  2.00000000E+00 3.00000000E+00
-5.00000000E+00  4.00000000E+00 3.00000000E+00
-5.00000000E+00  6.00000000E+00 3.00000000E+00
-5.00000000E+00  8.00000000E+00 3.00000000E+00
-5.00000000E+00  1.00000000E+01 3.00000000E+00
-5.00000000E+00  1.20000000E+01 3.00000000E+00
-5.00000000E+00  1.40000000E+01 3.00000000E+00
-5.00000000E+00  1.60000000E+01 3.00000000E+00
-5.00000000E+00  1.80000000E+01 3.00000000E+00
-5.00000000E+00  2.00000000E+01 3.00000000E+00
-5.00000000E+00  2.20000000E+01 3.00000000E+00
-5.00000000E+00  2.40000000E+01 3.00000000E+00
-5.00000000E+00  2.60000000E+01 3.00000000E+00
-5.00000000E+00  2.80000000E+01 3.00000000E+00
-5.00000000E+00  3.00000000E+01 1.50000000E+00
-5.00000000E+00  2.80000000E+01 0.00000000E+00
-5.00000000E+00  2.60000000E+01 0.00000000E+00
-5.00000000E+00  2.40000000E+01 0.00000000E+00
-5.00000000E+00  2.20000000E+01 0.00000000E+00
-5.00000000E+00  2.00000000E+01 0.00000000E+00
-5.00000000E+00  1.80000000E+01 0.00000000E+00
-5.00000000E+00  1.60000000E+01 0.00000000E+00
-5.00000000E+00  1.40000000E+01 0.00000000E+00
-5.00000000E+00  1.20000000E+01 0.00000000E+00
-5.00000000E+00  1.00000000E+01 0.00000000E+00
-5.00000000E+00  8.00000000E+00 0.00000000E+00
-5.00000000E+00  6.00000000E+00 0.00000000E+00
-5.00000000E+00  4.00000000E+00 0.00000000E+00
-5.00000000E+00  2.00000000E+00 0.00000000E+00
-5.00000000E+00  0.00000000E+00 1.50000000E+00
-3.00000000E+00  3.00000000E+01 3.00000000E+00
-1.00000000E+00  3.00000000E+01 3.00000000E+00
1.00000000E+00  3.00000000E+01 3.00000000E+00
3.00000000E+00  3.00000000E+01 3.00000000E+00
5.00000000E+00  3.00000000E+01 3.00000000E+00
7.00000000E+00  3.00000000E+01 3.00000000E+00
9.00000000E+00  3.00000000E+01 3.00000000E+00
1.10000000E+01  3.00000000E+01 3.00000000E+00
1.30000000E+01  3.00000000E+01 3.00000000E+00
1.50000000E+01  3.00000000E+01 1.50000000E+00
1.30000000E+01  3.00000000E+01 0.00000000E+00
1.10000000E+01  3.00000000E+01 0.00000000E+00
9.00000000E+00  3.00000000E+01 0.00000000E+00
7.00000000E+00  3.00000000E+01 0.00000000E+00
5.00000000E+00  3.00000000E+01 0.00000000E+00
3.00000000E+00  3.00000000E+01 0.00000000E+00
1.00000000E+00  3.00000000E+01 0.00000000E+00
-1.00000000E+00  3.00000000E+01 0.00000000E+00
-3.00000000E+00  3.00000000E+01 0.00000000E+00
-2.69134180E+01  -9.61939810E+00 3.00000000E+00
-2.85355340E+01  -8.53553390E+00 3.00000000E+00
-2.96193980E+01  -6.91341730E+00 3.00000000E+00
-3.00000000E+01  -5.00000000E+00 3.00000000E+00
-2.96193980E+01  -3.08658290E+00 3.00000000E+00
-2.85355340E+01  -1.46446610E+00 3.00000000E+00
-2.69134180E+01  -3.80602330E-01 3.00000000E+00
-2.50000000E+01  0.00000000E+00 1.50000000E+00
-2.69134180E+01  -3.80602330E-01 0.00000000E+00
-2.85355340E+01  -1.46446610E+00 0.00000000E+00
-2.96193980E+01  -3.08658290E+00 0.00000000E+00
-3.00000000E+01  -5.00000000E+00 0.00000000E+00
-2.96193980E+01  -6.91341730E+00 0.00000000E+00
-2.85355340E+01  -8.53553390E+00 0.00000000E+00
-2.69134180E+01  -9.61939810E+00 0.00000000E+00
-2.50000000E+01  -1.00000000E+01 1.50000000E+00
-2.30000000E+01  0.00000000E+00 3.00000000E+00
-2.10000000E+01  0.00000000E+00 3.00000000E+00
-1.90000000E+01  0.00000000E+00 3.00000000E+00
-1.70000000E+01  0.00000000E+00 3.00000000E+00
-1.50000000E+01  0.00000000E+00 3.00000000E+00
-1.30000000E+01  0.00000000E+00 3.00000000E+00
-1.10000000E+01  0.00000000E+00 3.00000000E+00
-9.00000000E+00  0.00000000E+00 3.00000000E+00
-7.00000000E+00  0.00000000E+00 3.00000000E+00
-7.00000000E+00  0.00000000E+00 0.00000000E+00
-9.00000000E+00  0.00000000E+00 0.00000000E+00
-1.10000000E+01  0.00000000E+00 0.00000000E+00
-1.30000000E+01  0.00000000E+00 0.00000000E+00
-1.50000000E+01  0.00000000E+00 0.00000000E+00
-1.70000000E+01  0.00000000E+00 0.00000000E+00
-1.90000000E+01  0.00000000E+00 0.00000000E+00
-2.10000000E+01  0.00000000E+00 0.00000000E+00
-2.30000000E+01  0.00000000E+00 0.00000000E+00
1.35714280E+01  2.85714280E+01 3.00000000E+00
1.21428580E+01  2.71428570E+01 3.00000000E+00
1.07142860E+01  2.57142850E+01 3.00000000E+00
9.28571420E+00  2.42857150E+01 3.00000000E+00
7.85714290E+00  2.28571430E+01 3.00000000E+00
6.42857120E+00  2.14285720E+01 3.00000000E+00
5.00000000E+00  2.00000000E+01 1.50000000E+00
6.42857120E+00  2.14285720E+01 0.00000000E+00
7.85714290E+00  2.28571430E+01 0.00000000E+00
9.28571420E+00  2.42857150E+01 0.00000000E+00
1.07142860E+01  2.57142850E+01 0.00000000E+00
1.21428580E+01  2.71428570E+01 0.00000000E+00
1.35714280E+01  2.85714280E+01 0.00000000E+00
5.00000000E+00  1.80000000E+01 0.00000000E+00
5.00000000E+00  1.60000000E+01 0.00000000E+00
5.00000000E+00  1.40000000E+01 0.00000000E+00
5.00000000E+00  1.20000000E+01 0.00000000E+00
5.00000000E+00  1.00000000E+01 0.00000000E+00
5.00000000E+00  8.00000000E+00 0.00000000E+00
5.00000000E+00  6.00000000E+00 0.00000000E+00
5.00000000E+00  4.00000000E+00 0.00000000E+00
5.00000000E+00  2.00000000E+00 0.00000000E+00
5.00000000E+00  0.00000000E+00 0.00000000E+00
5.00000000E+00  -2.00000000E+00 0.00000000E+00
5.00000000E+00  -4.00000000E+00 0.00000000E+00
5.00000000E+00  -6.00000000E+00 0.00000000E+00
5.00000000E+00  -8.00000000E+00 0.00000000E+00
3.00000000E+00  -1.00000000E+01 0.00000000E+00
1.00000000E+00  -1.00000000E+01 0.00000000E+00
-1.00000000E+00  -1.00000000E+01 0.00000000E+00
-3.00000000E+00  -1.00000000E+01 0.00000000E+00
-5.00000000E+00  -1.00000000E+01 0.00000000E+00
-7.00000000E+00  -1.00000000E+01 0.00000000E+00
-9.00000000E+00  -1.00000000E+01 0.00000000E+00
-1.10000000E+01  -1.00000000E+01 0.00000000E+00
-1.30000000E+01  -1.00000000E+01 0.00000000E+00
-1.50000000E+01  -1.00000000E+01 0.00000000E+00
-1.70000000E+01  -1.00000000E+01 0.00000000E+00
-1.90000000E+01  -1.00000000E+01 0.00000000E+00
-2.10000000E+01  -1.00000000E+01 0.00000000E+00
-2.30000000E+01  -1.00000000E+01 0.00000000E+00
3.00000000E+00  -1.00000000E+01 3.00000000E+00
1.00000000E+00  -1.00000000E+01 3.00000000E+00
-1.00000000E+00  -1.00000000E+01 3.00000000E+00
-3.00000000E+00  -1.00000000E+01 3.00000000E+00
-5.00000000E+00  -1.00000000E+01 3.00000000E+00
-7.00000000E+00  -1.00000000E+01 3.00000000E+00
-9.00000000E+00  -1.00000000E+01 3.00000000E+00
-1.10000000E+01  -1.00000000E+01 3.00000000E+00
-1.30000000E+01  -1.00000000E+01 3.00000000E+00
-1.50000000E+01  -1.00000000E+01 3.00000000E+00
-1.70000000E+01  -1.00000000E+01 3.00000000E+00
-1.90000000E+01  -1.00000000E+01 3.00000000E+00
-2.10000000E+01  -1.00000000E+01 3.00000000E+00
-2.30000000E+01  -1.00000000E+01 3.00000000E+00
5.00000000E+00  -1.00000000E+01 1.50000000E+00
5.00000000E+00  -8.00000000E+00 3.00000000E+00
5.00000000E+00  -6.00000000E+00 3.00000000E+00
5.00000000E+00  -4.00000000E+00 3.00000000E+00
5.00000000E+00  -2.00000000E+00 3.00000000E+00
5.00000000E+00  0.00000000E+00 3.00000000E+00
5.00000000E+00  2.00000000E+00 3.00000000E+00
5.00000000E+00  4.00000000E+00 3.00000000E+00
5.00000000E+00  6.00000000E+00 3.00000000E+00
5.00000000E+00  8.00000000E+00 3.00000000E+00
5.00000000E+00  1.00000000E+01 3.00000000E+00
5.00000000E+00  1.20000000E+01 3.00000000E+00
5.00000000E+00  1.40000000E+01 3.00000000E+00
5.00000000E+00  1.60000000E+01 3.00000000E+00
5.00000000E+00  1.80000000E+01 3.00000000E+00
-5.00000000E+00  2.00000000E+00 1.50000000E+00
-5.00000000E+00  4.00000000E+00 1.50000000E+00
-5.00000000E+00  6.00000000E+00 1.50000000E+00
-5.00000000E+00  8.00000000E+00 1.50000000E+00
-5.00000000E+00  1.00000000E+01 1.50000000E+00
-5.00000000E+00  1.20000000E+01 1.50000000E+00
-5.00000000E+00  1.40000000E+01 1.50000000E+00
-5.00000000E+00  1.60000000E+01 1.50000000E+00
-5.00000000E+00  1.80000000E+01 1.50000000E+00
-5.00000000E+00  2.00000000E+01 1.50000000E+00
-5.00000000E+00  2.20000000E+01 1.50000000E+00
-5.00000000E+00  2.40000000E+01 1.50000000E+00
-5.00000000E+00  2.60000000E+01 1.50000000E+00
-5.00000000E+00  2.80000000E+01 1.50000000E+00
-3.00000000E+00  3.00000000E+01 1.50000000E+00
-1.00000000E+00  3.00000000E+01 1.50000000E+00
1.00000000E+00  3.00000000E+01 1.50000000E+00
3.00000000E+00  3.00000000E+01 1.50000000E+00
5.00000000E+00  3.00000000E+01 1.50000000E+00
7.00000000E+00  3.00000000E+01 1.50000000E+00
9.00000000E+00  3.00000000E+01 1.50000000E+00
1.10000000E+01  3.00000000E+01 1.50000000E+00
1.30000000E+01  3.00000000E+01 1.50000000E+00
-2.69134180E+01  -9.61939720E+00 1.50000000E+00
-2.85355340E+01  -8.53553390E+00 1.50000000E+00
-2.96193980E+01  -6.91341730E+00 1.50000000E+00
-3.00000000E+01  -5.00000000E+00 1.50000000E+00
-2.96193980E+01  -3.08658310E+00 1.50000000E+00
-2.85355340E+01  -1.46446610E+00 1.50000000E+00
-2.69134180E+01  -3.80602570E-01 1.50000000E+00
-2.30000000E+01  0.00000000E+00 1.50000000E+00
-2.10000000E+01  0.00000000E+00 1.50000000E+00
-1.90000000E+01  0.00000000E+00 1.50000000E+00
-1.70000000E+01  0.00000000E+00 1.50000000E+00
-1.50000000E+01  0.00000000E+00 1.50000000E+00
-1.30000000E+01  0.00000000E+00 1.50000000E+00
-1.10000000E+01  0.00000000E+00 1.50000000E+00
-9.00000000E+00  0.00000000E+00 1.50000000E+00
-7.00000000E+00  0.00000000E+00 1.50000000E+00
1.35714280E+01  2.85714280E+01 1.50000000E+00
1.21428570E+01  2.71428570E+01 1.50000000E+00
1.07142850E+01  2.57142850E+01 1.50000000E+00
9.28571510E+00  2.42857150E+01 1.50000000E+00
[...]
POINT_DATA     4526
SCALARS Ux float
LOOKUP_TABLE default
4.64558434E-01
9.22801529E-01
9.22311885E-01
4.36597834E-01
1.00000000E+00
1.00000000E+00
-1.38777878E-17
3.29597460E-17
-4.16333634E-17
-1.73472348E-17
1.00000000E+00
1.00000000E+00
4.63284665E-01
4.63733169E-01
5.43947617E-01
5.89408875E-01
6.20543422E-01
6.58587183E-01
6.99227492E-01
7.38684117E-01
7.80700164E-01
8.06721733E-01
8.36227525E-01
8.65056101E-01
8.86811409E-01
9.02567834E-01
9.14870486E-01
9.19779359E-01
9.22644097E-01
9.19181312E-01
9.12568520E-01
9.03599150E-01
8.87984296E-01
8.63576689E-01
8.38642788E-01
8.08324219E-01
7.72364052E-01
7.37766215E-01
7.08541261E-01
6.60570002E-01
6.15807159E-01
5.84134682E-01
5.33669308E-01
4.64271992E-01
9.24572353E-01
9.30713477E-01
9.39951938E-01
9.51821233E-01
9.67364841E-01
9.78265125E-01
9.86795294E-01
9.95441005E-01
9.98644797E-01
1.00000000E+00
9.98568211E-01
9.93372155E-01
9.85741570E-01
9.74642654E-01
9.61856520E-01
9.53672262E-01
9.41154854E-01
9.30208216E-01
9.24384158E-01
-9.54097912E-18
3.93023288E-18
1.46909394E-17
-1.04625510E-17
1.40946282E-18
-8.67361738E-18
3.68628739E-17
1.38777878E-17
-3.29597460E-17
3.81639165E-17
-1.21430643E-17
2.38524478E-18
-2.15756232E-17
-1.73472348E-17
-1.90819582E-17
-8.50014503E-17
6.55177072E-02
1.16189668E-01
1.51872002E-01
1.80311339E-01
2.21600496E-01
2.63415800E-01
3.13250803E-01
3.46479426E-01
3.89465333E-01
3.89266385E-01
3.45915590E-01
3.02959863E-01
2.61219266E-01
2.23912753E-01
1.82746676E-01
1.53659180E-01
1.04257024E-01
5.78807866E-02
1.00000000E+00
1.00000000E+00
1.00000000E+00
1.00000000E+00
1.00000000E+00
1.00000000E+00
1.00000000E+00
1.00000000E+00
1.00000000E+00
1.00000000E+00
1.00000000E+00
1.00000000E+00
1.00000000E+00
8.85995247E-01
8.41237592E-01
7.90233185E-01
7.48101533E-01
7.10154784E-01
6.68802188E-01
6.25754952E-01
5.92949728E-01
5.59582359E-01
5.32020823E-01
5.10306636E-01
4.89709212E-01
4.76064730E-01
4.66673537E-01
4.60110651E-01
4.53562929E-01
4.37366045E-01
4.16003921E-01
3.88521971E-01
3.64266082E-01
3.29661247E-01
2.89185615E-01
2.51909408E-01
2.21108292E-01
1.80864668E-01
1.39067018E-01
1.07498201E-01
7.19591427E-02
4.60133546E-01
4.52465725E-01
4.31221089E-01
4.15851662E-01
3.86053770E-01
3.60081489E-01
3.23350317E-01
2.88031421E-01
2.49194178E-01
2.14596780E-01
1.83669996E-01
1.36027506E-01
1.04752827E-01
6.60893353E-02
4.63396501E-01
4.66668144E-01
4.73437316E-01
4.90834909E-01
5.07346509E-01
5.34362410E-01
5.62575057E-01
5.94278753E-01
6.30786230E-01
6.58054956E-01
7.01406410E-01
7.41820230E-01
7.85828437E-01
8.26379922E-01
8.77735703E-01
5.38268475E-01
5.79623404E-01
6.24851844E-01
6.63264475E-01
7.02842220E-01
7.35830890E-01
7.76934880E-01
8.07809790E-01
8.34666785E-01
8.64540621E-01
8.88351733E-01
9.01846460E-01
9.13556489E-01
9.19614667E-01
9.24346342E-01
9.31034205E-01
9.40016973E-01
9.51519060E-01
9.64273615E-01
9.75272453E-01
9.87155305E-01
9.93755279E-01
9.98593812E-01
3.90312782E-18
8.45677695E-18
-1.38777878E-17
-2.03830008E-17
-1.08420217E-17
1.75640752E-17
-3.84891771E-17
6.46139620E-02
1.08633152E-01
1.45547494E-01
1.82265684E-01
2.25580571E-01
2.62370091E-01
3.10692809E-01
3.44478666E-01
3.93753168E-01
1.00000000E+00
1.00000000E+00
1.00000000E+00
1.00000000E+00
1.00000000E+00
1.00000000E+00
1.86857801E-02
9.26879743E-03
1.45269206E-02
1.88068162E-02
2.63951861E-02
8.91805608E-01
8.49369721E-01
4.61013913E-01
3.46394364E-01
9.97377026E-01
9.93697821E-01
9.83247585E-01
9.71115692E-01
9.56856363E-01
9.43453468E-01
9.33316230E-01
8.07607386E-01
7.62783356E-01
7.21516299E-01
6.83205523E-01
6.48424179E-01
6.08916533E-01
5.77785833E-01
5.18930171E-01
5.46942836E-01
5.21120607E-01
4.97035320E-01
4.78386450E-01
4.48603372E-01
4.29967396E-01
4.03517853E-01
3.78395570E-01
3.15009348E-01
2.80566060E-01
2.39833940E-01
2.00739401E-01
1.63190366E-01
1.26286601E-01
8.64482894E-02
5.54094289E-02
4.50956173E-02
4.12393779E-01
3.65177592E-01
3.17219643E-01
2.77633571E-01
2.41471679E-01
2.00103309E-01
1.65773710E-01
1.26998877E-01
9.62005458E-02
9.18564977E-01
9.10102263E-01
8.97753764E-01
8.77337924E-01
8.53592734E-01
8.20927670E-01
7.86678011E-01
7.54183561E-01
7.17460962E-01
6.79097717E-01
6.40857272E-01
6.01347103E-01
5.61889918E-01
9.88840991E-01
9.64623189E-01
9.86696616E-01
9.82155787E-01
4.37057538E-02
4.50518125E-02
3.54844622E-02
4.69420901E-01
4.87311855E-01
9.23299095E-01
3.66983139E-01
9.35864500E-01
9.64620863E-01
9.76176058E-01
5.59701927E-01
5.00144411E-01
4.02566914E-01
3.37877770E-01
3.02711785E-01
2.62871740E-01
2.20904265E-01
1.83283108E-01
1.45184539E-01
1.08723247E-01
9.23326329E-01
8.44554354E-01
8.13390996E-01
7.74215931E-01
7.39494998E-01
7.07482952E-01
6.67698438E-01
6.26311550E-01
5.84534223E-01
9.48414154E-01
5.29343724E-01
4.81142233E-01
4.64117253E-01
4.48409214E-01
4.26387404E-01
3.76569461E-01
3.34737975E-01
2.96972446E-01
2.57496312E-01
2.19875549E-01
1.78062973E-01
1.42390177E-01
1.07509213E-01
9.11410405E-01
8.95081400E-01
8.70072869E-01
8.22567559E-01
7.89004279E-01
7.42304347E-01
7.05143740E-01
6.64311060E-01
6.28211458E-01
5.95523037E-01
5.44149062E-01
8.63273785E-01
7.30755509E-02
7.33327740E-02
9.30953083E-01
9.58959023E-01
5.97412498E-02
8.98203934E-01
2.47345058E-02
8.32989539E-01
5.15918583E-01
4.19001892E-01
3.89417612E-01
4.74660115E-01
3.55165291E-01
3.19720922E-01
2.76689655E-01
2.38372579E-01
2.00416300E-01
1.70227314E-01
4.21584733E-01
4.47008515E-01
5.08356662E-01
5.39418193E-01
5.75232485E-01
6.10753428E-01
6.48236730E-01
6.81903625E-01
7.19720050E-01
8.99123393E-01
9.15228398E-01
7.60317376E-01
9.23876867E-01
7.98318778E-01
8.69630455E-01
9.35430392E-01
1.28608769E-01
9.30719793E-02
9.33180883E-01
4.55798626E-01
4.78520437E-01
4.62258800E-01
4.56745785E-01
9.26602244E-01
9.74393634E-01
4.60642596E-01
4.49942311E-01
4.35699539E-01
4.14751831E-01
3.92306243E-01
3.61005663E-01
3.28831782E-01
2.93425310E-01
2.55644384E-01
2.23510263E-01
1.84909168E-01
1.42221620E-01
1.04296300E-01
6.18837132E-02
1.27540537E-02
2.25018798E-02
1.57416717E-02
2.71634138E-02
2.78214617E-01
4.12226881E-01
8.48173930E-01
9.59232273E-01
5.64495280E-02
4.82138122E-02
8.88381795E-02
1.29735349E-01
1.67890852E-01
2.04571491E-01
2.44243996E-01
3.22062874E-01
3.63077506E-01
4.59251793E-01
4.46741812E-01
4.32170447E-01
4.06592046E-01
3.79638009E-01
3.49244793E-01
3.13747697E-01
2.76034181E-01
2.42649558E-01
2.00794773E-01
1.68033069E-01
1.31990719E-01
8.75019066E-02
8.95520955E-01
8.05465044E-01
7.66985353E-01
7.25944403E-01
6.87693142E-01
6.49576904E-01
6.13064560E-01
5.77204247E-01
5.46242165E-01
5.23787108E-01
4.95415254E-01
4.79967281E-01
9.97394198E-01
9.92567417E-01
9.90399481E-01
9.86124280E-01
9.74581763E-01
9.24222703E-01
9.33722002E-01
9.45506882E-01
9.56215000E-01
9.70900863E-01
9.82605242E-01
5.13721889E-01
5.59962471E-01
6.02931559E-01
6.46824636E-01
6.88609042E-01
7.20144812E-01
7.52593125E-01
7.90688573E-01
8.33179556E-01
8.55694499E-01
8.75403202E-01
8.98476428E-01
9.09718991E-01
4.51330538E-02
3.88855331E-02
9.81973835E-03
4.65027844E-01
4.67455814E-01
9.17948482E-01
5.01886528E-01
2.22553149E-01
3.33350123E-01
4.79124772E-01
3.70497975E-01
2.96510372E-01
2.61894566E-01
1.87341724E-01
1.45660492E-01
1.08281125E-01
9.12318843E-01
9.35374060E-01
9.79645589E-01
5.47926067E-01
5.85969684E-01
6.25105475E-01
6.63919909E-01
7.02788436E-01
7.41330825E-01
7.75001096E-01
8.11590996E-01
8.44957177E-01
8.72566832E-01
4.47088518E-01
4.24743941E-01
3.95745819E-01
3.77609074E-01
3.36947853E-01
2.98807349E-01
2.59948229E-01
2.19534259E-01
1.82555534E-01
1.46251547E-01
1.11185882E-01
5.62357841E-01
5.26960499E-01
4.64241762E-01
9.48917050E-01
8.98327781E-01
9.68110756E-01
5.98029187E-01
6.31201149E-01
6.70468661E-01
7.09819436E-01
7.46212058E-01
7.82112450E-01
8.29251967E-01
9.22554806E-01
8.62863329E-01
7.65798255E-02
7.60143248E-02
9.26421612E-01
6.06721002E-02
9.30326244E-01
8.33988679E-01
4.15980674E-01
5.06704773E-01
4.79989606E-01
4.22402106E-01
3.87273069E-01
3.51469835E-01
3.16629554E-01
5.33037956E-01
5.73783754E-01
6.12431416E-01
6.43199287E-01
6.78480581E-01
7.21714259E-01
7.64288462E-01
7.98434405E-01
5.04605341E-01
4.49115317E-01
2.75275300E-01
2.37455605E-01
2.02868402E-01
8.96130912E-01
1.65325229E-01
9.17456416E-01
8.67888487E-01
9.36640854E-01
9.53228436E-01
1.37875389E-01
8.98654232E-01
9.38005190E-02
4.73405490E-01
4.44219676E-01
4.62787952E-01
9.24358169E-01
5.06478956E-02
2.42835853E-02
4.69581495E-01
8.79058503E-01
8.29631015E-01
7.88143011E-01
7.46826550E-01
7.04256527E-01
6.70126438E-01
6.33604097E-01
5.96146135E-01
5.67131535E-01
5.35085277E-01
5.07026694E-01
4.88784715E-01
4.74638307E-01
4.66035639E-01
4.66730492E-01
4.88995295E-01
4.67260150E-01
4.46487958E-01
4.62734462E-01
4.32734982E-01
5.22803589E-01
5.39337606E-01
5.01436776E-01
5.13003734E-01
4.59691853E-01
4.63536037E-01
9.20264582E-01
9.13162837E-01
9.19755642E-01
9.93701268E-01
9.78819316E-01
4.60682118E-01
4.49675688E-01
4.71676801E-01
4.10899231E-01
4.14609401E-01
4.04424754E-01
3.92649716E-01
3.81987329E-01
9.89364816E-01
4.88999577E-01
4.75797731E-01
9.08818090E-01
9.44215559E-01
9.17102820E-01
9.21413261E-01
8.85575608E-01
4.29848641E-01
4.37591739E-01
9.91897054E-01
9.79444775E-01
9.69213492E-01
1.29428963E-02
1.50814224E-02
3.73067627E-02
2.71333036E-02
7.65256660E-03
8.96727920E-01
8.88540796E-01
9.04015428E-01
9.84235140E-01
2.19904461E-02
6.86338044E-02
4.70836051E-02
9.95754483E-03
2.07340650E-02
7.77096021E-01
3.24470307E-02
4.54360326E-01
9.43224312E-01
5.71082620E-03
1.80591251E-02
1.69580236E-02
9.17544555E-01
9.28575054E-01
9.31002063E-01
9.00955839E-01
5.95905450E-01
6.11226092E-01
5.78053689E-01
5.65552528E-01
7.85562063E-01
7.59753429E-01
3.65276419E-01
4.75952200E-01
9.22610772E-01
9.26885013E-01
5.10122198E-01
4.42714899E-01
4.92711911E-01
6.33469203E-01
6.47352612E-01
6.30369406E-01
9.52431129E-01
1.28600074E-01
1.06917457E-01
1.45497259E-01
1.64755907E-01
1.41644005E-01
2.78483593E-01
2.55722892E-01
2.40853882E-01
2.97110972E-01
7.58251633E-01
7.17023599E-01
7.30196113E-01
3.74647499E-02
9.38083006E-01
9.51331176E-01
9.58369993E-01
8.11510960E-01
7.93391323E-01
5.88247356E-01
5.70268355E-01
5.49313554E-01
6.02854012E-01
4.69871671E-01
1.27426371E-01
8.91072343E-02
1.03194981E-01
6.82175804E-01
6.60755928E-01
6.95822712E-01
6.42396300E-01
6.69257339E-01
8.72238548E-01
8.79477274E-01
8.40302899E-01
9.63428423E-01
9.76953572E-01
8.60949314E-01
8.49058481E-01
5.46258917E-02
5.40954872E-01
5.85185101E-01
8.66436175E-01
8.43120101E-01
6.23469375E-01
8.28128844E-01
8.15923538E-01
9.17302823E-01
8.24085837E-01
1.83564332E-01
2.06215691E-01
1.70118848E-01
2.17937747E-01
7.04063002E-01
7.43724859E-01
7.26942889E-01
3.31044485E-01
3.16863002E-01
3.46862916E-01
5.17954705E-01
5.26148180E-01
7.66382119E-01
7.79710197E-02
1.43729857E-01
6.83341733E-01
7.09348885E-01
6.85140506E-02
2.22051376E-01
2.48127438E-01
2.62255595E-01
2.09725708E-01
1.81830406E-01
9.96381742E-01
3.19768899E-01
3.44575973E-01
2.97280489E-01
3.32297975E-01
3.61561182E-01
3.70989114E-01
4.02842947E-01
1.75452437E-01
2.25044175E-01
6.69101428E-01
7.97872975E-01
2.61071018E-01
2.84450657E-01
3.87450615E-01
2.93778430E-01
7.48167939E-01
1.02240983E-01
6.98141204E-02
4.78720511E-01
4.82643455E-01
4.71528045E-01
4.70900033E-01
4.67468353E-01
4.77100181E-01
4.72053692E-01
4.84805953E-01
4.72785177E-01
4.55646758E-01
4.46683500E-01
4.57211306E-01
4.58400667E-01
4.58047533E-01
4.51352318E-01
4.48171318E-01
4.64896184E-01
4.52380436E-01
4.58117988E-01
4.38550773E-01
4.69089557E-01
4.70915629E-01
4.60649229E-01
4.59086963E-01
4.57472415E-01
4.66813412E-01
5.30046033E-01
5.38093923E-01
5.28469507E-01
5.43888941E-01
5.34742417E-01
5.41552831E-01
5.16900196E-01
5.08851056E-01
5.14565083E-01
5.25173809E-01
5.21915518E-01
5.10553800E-01
5.09727538E-01
5.22078594E-01
5.17237583E-01
5.16748265E-01
5.07384570E-01
5.05807362E-01
5.15886008E-01
5.06816092E-01
5.05896553E-01
5.34315444E-01
5.43196749E-01
5.40743025E-01
5.29577378E-01
5.23758630E-01
5.22020229E-01
4.63003880E-01
4.64356887E-01
4.61685028E-01
4.61488862E-01
4.60009809E-01
4.61969643E-01
5.33230206E-01
5.40037140E-01
9.19895543E-01
9.18801684E-01
9.19508127E-01
9.15455813E-01
9.17057221E-01
9.17511253E-01
9.20315232E-01
9.20178532E-01
9.23142615E-01
9.24706141E-01
9.21973969E-01
9.22013808E-01
9.15583027E-01
9.12818524E-01
9.15950059E-01
9.17427339E-01
9.16905274E-01
9.18341914E-01
9.19976022E-01
9.14637887E-01
9.19889170E-01
9.18974711E-01
9.21341866E-01
9.92856555E-01
9.92214875E-01
9.91430649E-01
9.96375640E-01
9.97114507E-01
9.96367791E-01
9.17781358E-01
9.15557259E-01
9.19301511E-01
9.16827540E-01
9.74189940E-01
9.74309743E-01
9.79320595E-01
9.66612931E-01
9.65450190E-01
9.61122794E-01
4.54997901E-01
4.60326769E-01
4.54219276E-01
4.54966606E-01
4.49008261E-01
4.55481231E-01
4.59674526E-01
4.61539525E-01
4.62095022E-01
4.59895420E-01
4.60798125E-01
4.49024892E-01
4.47995436E-01
4.49528015E-01
4.55968056E-01
4.54304985E-01
4.54669796E-01
4.59916136E-01
4.59668218E-01
4.59837154E-01
4.57166594E-01
4.54727042E-01
4.64694014E-01
4.66233001E-01
4.67777463E-01
4.63196305E-01
4.62215308E-01
4.16427054E-01
4.34340050E-01
4.25542608E-01
4.38045241E-01
4.21504148E-01
4.24671382E-01
4.32722931E-01
4.18025530E-01
4.25952120E-01
4.06645480E-01
4.06930461E-01
4.12973074E-01
4.21933178E-01
4.18788735E-01
4.11879464E-01
4.08804439E-01
4.13063720E-01
4.09392396E-01
4.02422779E-01
4.01141870E-01
4.00923403E-01
3.95021970E-01
3.90460357E-01
3.95931975E-01
3.89330505E-01
3.94240441E-01
4.06696100E-01
4.03702158E-01
9.89237102E-01
9.87524926E-01
9.91314530E-01
9.91887779E-01
9.93249516E-01
9.90173151E-01
4.90651531E-01
4.89540670E-01
4.90779009E-01
4.95084154E-01
4.96218850E-01
4.95607008E-01
4.82544577E-01
4.83456821E-01
4.82533672E-01
5.01657282E-01
4.99748108E-01
4.89818414E-01
4.84582637E-01
4.96423790E-01
4.88444452E-01
4.84164834E-01
5.01274595E-01
5.00051527E-01
9.84579186E-01
9.85555350E-01
9.88473178E-01
4.83061827E-01
4.93956667E-01
4.98486209E-01
4.87977741E-01
5.09651861E-01
5.22799274E-01
5.15687322E-01
4.73738785E-01
4.76123255E-01
4.73463605E-01
4.74615645E-01
4.73998414E-01
4.75947065E-01
5.16336500E-01
9.27096223E-01
9.37542793E-01
9.19673369E-01
9.26628222E-01
9.11648335E-01
9.32772978E-01
9.37155393E-01
9.18408840E-01
9.27352258E-01
9.18099943E-01
9.34443586E-01
4.70694206E-01
4.68685538E-01
4.69815159E-01
9.03816231E-01
9.04992074E-01
9.10171226E-01
9.25477582E-01
9.04424755E-01
9.02589485E-01
9.11426267E-01
8.92251649E-01
8.98359799E-01
8.99798478E-01
8.92175336E-01
4.37967350E-01
4.42920985E-01
4.33374586E-01
4.36567432E-01
4.33934006E-01
4.41240201E-01
4.22676876E-01
4.09923870E-01
4.17337461E-01
4.25283516E-01
4.29133710E-01
4.24339045E-01
4.18532093E-01
4.18348218E-01
4.29877766E-01
4.20637575E-01
4.22331974E-01
4.11757366E-01
4.39754489E-01
4.43757330E-01
4.33931913E-01
4.42453044E-01
4.10031582E-01
4.11448674E-01
4.22185556E-01
4.14792890E-01
4.32334371E-01
4.31983312E-01
4.26177875E-01
4.42009539E-01
4.39409303E-01
4.41824788E-01
4.35636790E-01
4.41533194E-01
9.95558614E-01
9.92724885E-01
9.90261104E-01
9.87703507E-01
9.88505445E-01
9.93471778E-01
9.80296840E-01
9.89501366E-01
9.88476922E-01
9.93000615E-01
9.83586967E-01
9.85301539E-01
9.90551703E-01
1.00000000E+00
9.88337672E-01
9.85331018E-01
9.94480412E-01
9.94852418E-01
1.00000000E+00
9.88682409E-01
9.88122108E-01
9.93561383E-01
9.96257660E-01
1.00000000E+00
9.92124682E-01
9.92848842E-01
9.78703354E-01
9.91144066E-01
9.73765376E-01
9.74711025E-01
9.69485783E-01
9.67354666E-01
9.66755095E-01
9.71562591E-01
5.03930892E-03
5.58586857E-03
1.57563358E-02
8.96336967E-03
6.84722897E-03
1.95156391E-17
1.78344648E-02
3.24859597E-02
2.41568176E-02
3.17871888E-02
2.13724527E-02
2.59272141E-02
1.25305644E-02
1.18116409E-02
1.37645996E-02
2.17433044E-02
1.73258398E-02
2.63623445E-02
2.77306778E-02
2.26944852E-02
3.44822210E-02
4.23050156E-02
2.84689065E-02
8.98861612E-01
9.00288051E-01
8.96987091E-01
8.90573501E-01
8.91463667E-01
8.94101232E-01
8.90499740E-01
8.89304553E-01
8.81677694E-01
8.96727349E-01
8.92759268E-01
8.91427865E-01
8.82410512E-01
8.89999881E-01
8.88589093E-01
8.93422043E-01
8.81441971E-01
8.81175542E-01
8.91006594E-01
8.86152445E-01
9.04900019E-01
9.11065220E-01
9.05154450E-01
9.08478953E-01
9.00738784E-01
9.07108918E-01
8.99799911E-01
9.00267607E-01
8.94573830E-01
9.07337792E-01
9.12039588E-01
9.05094503E-01
9.07242061E-01
8.99465745E-01
9.02466412E-01
9.07108316E-01
9.96969498E-01
1.00000000E+00
9.91722464E-01
9.89623972E-01
9.91469101E-01
9.90994180E-01
9.97197981E-01
9.94602017E-01
9.94700201E-01
9.94562870E-01
9.91157501E-01
9.87440537E-01
9.86928637E-01
9.85373019E-01
9.94152258E-01
1.00000000E+00
1.00000000E+00
9.96480365E-01
9.95101636E-01
9.87969107E-01
9.90406107E-01
9.87390484E-01
9.87711878E-01
9.84920632E-01
9.96890334E-01
9.96141753E-01
1.00000000E+00
1.45328441E-02
1.67724137E-02
2.43254896E-02
3.56937077E-02
3.47622443E-02
3.03461937E-02
4.39637525E-01
4.41419379E-01
4.33838395E-01
4.17891416E-02
5.72734957E-02
4.82714815E-02
3.46581900E-02
5.59799144E-02
8.12306274E-03
7.06667590E-03
2.03474435E-02
8.24313808E-03
9.31805533E-03
-4.94396191E-17
1.25173900E-02
1.41313793E-02
-1.04083409E-17
3.22459963E-02
5.94127116E-02
4.57987094E-02
2.78058075E-02
-9.02056208E-17
1.38888843E-02
2.80347145E-02
1.56033096E-02
1.40820695E-02
1.97514081E-02
2.24325038E-02
1.69897913E-02
7.80976881E-01
7.92528158E-01
7.90451957E-01
7.70314147E-01
7.67320290E-01
7.67234513E-01
4.33011416E-02
5.82262651E-02
4.23129258E-02
3.34474947E-02
1.77926420E-02
3.76934588E-02
2.08421076E-02
3.57790174E-02
2.11703376E-02
9.69672577E-03
7.22350601E-03
5.44015932E-03
1.02218590E-02
1.23599048E-17
2.71495113E-02
1.97889741E-02
3.14275615E-02
2.68309559E-02
1.03343949E-02
-2.49366500E-17
1.77577503E-02
8.83543120E-01
9.32100050E-01
9.06469653E-01
9.28221769E-01
8.96203003E-01
8.93595595E-01
5.15359787E-02
3.33851824E-02
3.73591702E-02
4.53074927E-02
4.45062379E-02
4.47317829E-01
4.50832311E-01
4.50772077E-01
4.46912292E-01
4.43326088E-01
4.47645575E-01
4.42626899E-01
4.50668750E-01
4.52150926E-01
4.98978078E-01
4.92886942E-01
5.01046699E-01
5.05277076E-01
5.04508234E-01
4.49830040E-01
4.59219778E-01
9.90296774E-01
1.00000000E+00
1.00000000E+00
9.76567334E-01
9.77091478E-01
9.81106379E-01
4.56647583E-01
4.60489134E-01
4.40660210E-01
4.34243908E-01
9.43517132E-01
9.40076563E-01
9.39041345E-01
9.45680534E-01
9.53003482E-01
9.49967380E-01
4.50082770E-01
4.50343309E-01
4.51570077E-01
4.44687426E-01
4.44680854E-01
4.49068203E-01
9.46766519E-03
1.59344326E-02
1.05354728E-02
1.74114359E-02
1.15911170E-02
1.49176922E-02
5.19449705E-03
2.81458304E-03
5.15411400E-03
7.91919323E-03
1.19758399E-02
1.30552612E-02
8.24871441E-03
1.22558825E-02
-2.12503626E-17
2.79576339E-03
1.66967135E-17
2.47277619E-03
6.07153217E-18
8.30373595E-03
2.85966454E-03
4.56065657E-03
5.22691112E-03
5.42101086E-18
4.39136595E-03
9.23924197E-01
9.25947878E-01
9.19997485E-01
9.21214073E-01
9.18116299E-01
9.24768272E-01
9.25643030E-01
9.23192557E-01
9.26694619E-01
9.21192406E-01
9.23056647E-01
9.12473275E-01
9.02076752E-01
9.10870028E-01
9.08496314E-01
9.13952244E-01
9.08697994E-01
6.02425794E-01
6.01427204E-01
5.94893224E-01
5.88144436E-01
5.86705157E-01
5.91708520E-01
6.12393756E-01
6.05464623E-01
6.01105885E-01
5.80397750E-01
5.90312619E-01
5.71463647E-01
5.88172567E-01
5.78780107E-01
5.94700926E-01
4.63850680E-01
4.63440749E-01
4.62713906E-01
5.97154046E-01
6.05860353E-01
6.05820398E-01
5.87790725E-01
5.69831083E-01
5.81801205E-01
5.71439716E-01
5.77771499E-01
5.86769059E-01
5.71527023E-01
5.67153309E-01
5.78417620E-01
5.73602677E-01
1.97379867E-02
1.13835478E-02
1.58473071E-02
1.19183728E-02
2.27511028E-02
1.60245117E-02
4.60259881E-03
3.96414578E-03
7.93243662E-03
2.20125962E-02
1.12516868E-02
1.90115877E-02
6.16319185E-03
3.64291930E-17
1.22094685E-02
8.08453147E-03
5.31367693E-03
-4.55364912E-18
1.00000000E+00
9.97350767E-01
1.00000000E+00
1.00000000E+00
7.75662244E-01
7.64128944E-01
7.75214740E-01
7.74126253E-01
7.84129073E-01
7.76142249E-01
3.99162040E-01
4.12184296E-01
4.06027540E-01